------------------------------------------------------------
          Invoking FHI-aims ...

          When using FHI-aims, please cite the following reference:

            Volker Blum, Ralf Gehrke, Felix Hanke, Paula Havu,
            Ville Havu, Xinguo Ren, Karsten Reuter, and Matthias Scheffler,
            'Ab Initio Molecular Simulations with Numeric Atom-Centered Orbitals',
            Computer Physics Communications 180, 2175-2196 (2009)

          In addition, many other developments in FHI-aims are likely important for
          your particular application. If so, please cite them. A partial list of references
          is written at the end of this file. Thank you for giving credit to the authors
          of these developments.

          For general information about FHI-aims please find us at

            https://fhi-aims.org

          Online tutorials can be found at

            https://fhi-aims-club.gitlab.io/tutorials/tutorials-overview/

          For any questions about FHI-aims, please visit our slack channel at

            https://fhi-aims.slack.com

          and our main development and support site at

            https://aims-git.rz-berlin.mpg.de .

          The latter site, in particular, has a wiki to collect information, as well
          as an issue tracker to log discussions, suggest improvements, and report issues
          or bugs. https://aims-git.rz-berlin.mpg.de is also the main development site
          of the project and all new and updated code versions can be obtained there.
          Please send an email to aims-coordinators@fhi-berlin.mpg.de and we will add
          you to these sites. They are for you and everyone is welcome there.

------------------------------------------------------------



  Date     :  20250609, Time     :  051615.783
  Time zero on CPU 1             :   0.212890000000000E+00  s.
  Internal wall clock time zero  :           518678175.783  s.

  FHI-aims created a unique identifier for this run for later identification
  aims_uuid : E6DD7028-51C0-4D43-A456-DF2F71319896

  Build configuration of the current instance of FHI-aims
  -------------------------------------------------------
  FHI-aims version      : 230905
  Commit number         : 6362ac204
  CMake host system     : Linux-3.10.0-1160.119.1.el7.x86_64
  CMake version         : 3.14.3
  Fortran compiler      : /apps/compilers/intel/2018.2/compilers_and_libraries_2018/linux/mpi/intel64/bin/mpif90 (Intel) version 18.0.2.20180210
  Fortran compiler flags: -O3 -ip -fp-model precise
  C compiler            : /apps/compilers/intel/2018.2/compilers_and_libraries_2018/linux/bin/intel64/icc (Intel) version 18.0.2.20180210
  C compiler flags      : -O3 -ip -fp-model precise
  C++ compiler          : /apps/compilers/intel/2018.2/compilers_and_libraries_2018/linux/bin/intel64/icpc (Intel) version 18.0.2.20180210
  C++ compiler flags    : -O3 -ip -fp-model precise
  HIP compiler          :
  HIP compiler flags    :
  HIP GPU arch          :
  ELPA2 kernel          : AVX2
  Using MPI
  Using ScaLAPACK
  Using LibXC
  Using i-PI
  Using RLSY
  Linking against: /apps/compilers/intel/2018.2/compilers_and_libraries_2018/linux/mkl/lib/intel64/libmkl_intel_lp64.so
                   /apps/compilers/intel/2018.2/compilers_and_libraries_2018/linux/mkl/lib/intel64/libmkl_intel_thread.so
                   /apps/compilers/intel/2018.2/compilers_and_libraries_2018/linux/mkl/lib/intel64/libmkl_core.so
                   /apps/compilers/intel/2018.2/compilers_and_libraries_2018/linux/mkl/lib/intel64/libmkl_blacs_intelmpi_lp64.so
                   /apps/compilers/intel/2018.2/compilers_and_libraries_2018/linux/mkl/lib/intel64/libmkl_scalapack_lp64.so
                   /usr/lib64/libpthread.so

  Using      240 parallel tasks.
  Task        0 on host ccs0023 reporting.
  Task        1 on host ccs0023 reporting.
  Task        2 on host ccs0023 reporting.
  Task        3 on host ccs0023 reporting.
  Task        4 on host ccs0023 reporting.
  Task        5 on host ccs0023 reporting.
  Task        6 on host ccs0023 reporting.
  Task        7 on host ccs0023 reporting.
  Task        8 on host ccs0023 reporting.
  Task        9 on host ccs0023 reporting.
  Task       10 on host ccs0023 reporting.
  Task       11 on host ccs0023 reporting.
  Task       12 on host ccs0023 reporting.
  Task       13 on host ccs0023 reporting.
  Task       14 on host ccs0023 reporting.
  Task       15 on host ccs0023 reporting.
  Task       16 on host ccs0023 reporting.
  Task       17 on host ccs0023 reporting.
  Task       18 on host ccs0023 reporting.
  Task       19 on host ccs0023 reporting.
  Task       20 on host ccs0023 reporting.
  Task       21 on host ccs0023 reporting.
  Task       22 on host ccs0023 reporting.
  Task       23 on host ccs0023 reporting.
  Task       24 on host ccs0023 reporting.
  Task       25 on host ccs0023 reporting.
  Task       26 on host ccs0023 reporting.
  Task       27 on host ccs0023 reporting.
  Task       28 on host ccs0023 reporting.
  Task       29 on host ccs0023 reporting.
  Task       30 on host ccs0023 reporting.
  Task       31 on host ccs0023 reporting.
  Task       32 on host ccs0023 reporting.
  Task       33 on host ccs0023 reporting.
  Task       34 on host ccs0023 reporting.
  Task       35 on host ccs0023 reporting.
  Task       36 on host ccs0023 reporting.
  Task       37 on host ccs0023 reporting.
  Task       38 on host ccs0023 reporting.
  Task       39 on host ccs0023 reporting.
  Task       40 on host ccs0024 reporting.
  Task       41 on host ccs0024 reporting.
  Task       42 on host ccs0024 reporting.
  Task       43 on host ccs0024 reporting.
  Task       44 on host ccs0024 reporting.
  Task       45 on host ccs0024 reporting.
  Task       46 on host ccs0024 reporting.
  Task       47 on host ccs0024 reporting.
  Task       48 on host ccs0024 reporting.
  Task       49 on host ccs0024 reporting.
  Task       50 on host ccs0024 reporting.
  Task       51 on host ccs0024 reporting.
  Task       52 on host ccs0024 reporting.
  Task       53 on host ccs0024 reporting.
  Task       54 on host ccs0024 reporting.
  Task       55 on host ccs0024 reporting.
  Task       56 on host ccs0024 reporting.
  Task       57 on host ccs0024 reporting.
  Task       58 on host ccs0024 reporting.
  Task       59 on host ccs0024 reporting.
  Task       60 on host ccs0024 reporting.
  Task       61 on host ccs0024 reporting.
  Task       62 on host ccs0024 reporting.
  Task       63 on host ccs0024 reporting.
  Task       64 on host ccs0024 reporting.
  Task       65 on host ccs0024 reporting.
  Task       66 on host ccs0024 reporting.
  Task       67 on host ccs0024 reporting.
  Task       68 on host ccs0024 reporting.
  Task       69 on host ccs0024 reporting.
  Task       70 on host ccs0024 reporting.
  Task       71 on host ccs0024 reporting.
  Task       72 on host ccs0024 reporting.
  Task       73 on host ccs0024 reporting.
  Task       74 on host ccs0024 reporting.
  Task       75 on host ccs0024 reporting.
  Task       76 on host ccs0024 reporting.
  Task       77 on host ccs0024 reporting.
  Task       78 on host ccs0024 reporting.
  Task       79 on host ccs0024 reporting.
  Task       80 on host ccs0028 reporting.
  Task       81 on host ccs0028 reporting.
  Task       82 on host ccs0028 reporting.
  Task       83 on host ccs0028 reporting.
  Task       84 on host ccs0028 reporting.
  Task       85 on host ccs0028 reporting.
  Task       86 on host ccs0028 reporting.
  Task       87 on host ccs0028 reporting.
  Task       88 on host ccs0028 reporting.
  Task       89 on host ccs0028 reporting.
  Task       90 on host ccs0028 reporting.
  Task       91 on host ccs0028 reporting.
  Task       92 on host ccs0028 reporting.
  Task       93 on host ccs0028 reporting.
  Task       94 on host ccs0028 reporting.
  Task       95 on host ccs0028 reporting.
  Task       96 on host ccs0028 reporting.
  Task       97 on host ccs0028 reporting.
  Task       98 on host ccs0028 reporting.
  Task       99 on host ccs0028 reporting.
  Task      100 on host ccs0028 reporting.
  Task      101 on host ccs0028 reporting.
  Task      102 on host ccs0028 reporting.
  Task      103 on host ccs0028 reporting.
  Task      104 on host ccs0028 reporting.
  Task      105 on host ccs0028 reporting.
  Task      106 on host ccs0028 reporting.
  Task      107 on host ccs0028 reporting.
  Task      108 on host ccs0028 reporting.
  Task      109 on host ccs0028 reporting.
  Task      110 on host ccs0028 reporting.
  Task      111 on host ccs0028 reporting.
  Task      112 on host ccs0028 reporting.
  Task      113 on host ccs0028 reporting.
  Task      114 on host ccs0028 reporting.
  Task      115 on host ccs0028 reporting.
  Task      116 on host ccs0028 reporting.
  Task      117 on host ccs0028 reporting.
  Task      118 on host ccs0028 reporting.
  Task      119 on host ccs0028 reporting.
  Task      120 on host ccs0031 reporting.
  Task      121 on host ccs0031 reporting.
  Task      122 on host ccs0031 reporting.
  Task      123 on host ccs0031 reporting.
  Task      124 on host ccs0031 reporting.
  Task      125 on host ccs0031 reporting.
  Task      126 on host ccs0031 reporting.
  Task      127 on host ccs0031 reporting.
  Task      128 on host ccs0031 reporting.
  Task      129 on host ccs0031 reporting.
  Task      130 on host ccs0031 reporting.
  Task      131 on host ccs0031 reporting.
  Task      132 on host ccs0031 reporting.
  Task      133 on host ccs0031 reporting.
  Task      134 on host ccs0031 reporting.
  Task      135 on host ccs0031 reporting.
  Task      136 on host ccs0031 reporting.
  Task      137 on host ccs0031 reporting.
  Task      138 on host ccs0031 reporting.
  Task      139 on host ccs0031 reporting.
  Task      140 on host ccs0031 reporting.
  Task      141 on host ccs0031 reporting.
  Task      142 on host ccs0031 reporting.
  Task      143 on host ccs0031 reporting.
  Task      144 on host ccs0031 reporting.
  Task      145 on host ccs0031 reporting.
  Task      146 on host ccs0031 reporting.
  Task      147 on host ccs0031 reporting.
  Task      148 on host ccs0031 reporting.
  Task      149 on host ccs0031 reporting.
  Task      150 on host ccs0031 reporting.
  Task      151 on host ccs0031 reporting.
  Task      152 on host ccs0031 reporting.
  Task      153 on host ccs0031 reporting.
  Task      154 on host ccs0031 reporting.
  Task      155 on host ccs0031 reporting.
  Task      156 on host ccs0031 reporting.
  Task      157 on host ccs0031 reporting.
  Task      158 on host ccs0031 reporting.
  Task      159 on host ccs0031 reporting.
  Task      160 on host ccs0032 reporting.
  Task      161 on host ccs0032 reporting.
  Task      162 on host ccs0032 reporting.
  Task      163 on host ccs0032 reporting.
  Task      164 on host ccs0032 reporting.
  Task      165 on host ccs0032 reporting.
  Task      166 on host ccs0032 reporting.
  Task      167 on host ccs0032 reporting.
  Task      168 on host ccs0032 reporting.
  Task      169 on host ccs0032 reporting.
  Task      170 on host ccs0032 reporting.
  Task      171 on host ccs0032 reporting.
  Task      172 on host ccs0032 reporting.
  Task      173 on host ccs0032 reporting.
  Task      174 on host ccs0032 reporting.
  Task      175 on host ccs0032 reporting.
  Task      176 on host ccs0032 reporting.
  Task      177 on host ccs0032 reporting.
  Task      178 on host ccs0032 reporting.
  Task      179 on host ccs0032 reporting.
  Task      180 on host ccs0032 reporting.
  Task      181 on host ccs0032 reporting.
  Task      182 on host ccs0032 reporting.
  Task      183 on host ccs0032 reporting.
  Task      184 on host ccs0032 reporting.
  Task      185 on host ccs0032 reporting.
  Task      186 on host ccs0032 reporting.
  Task      187 on host ccs0032 reporting.
  Task      188 on host ccs0032 reporting.
  Task      189 on host ccs0032 reporting.
  Task      190 on host ccs0032 reporting.
  Task      191 on host ccs0032 reporting.
  Task      192 on host ccs0032 reporting.
  Task      193 on host ccs0032 reporting.
  Task      194 on host ccs0032 reporting.
  Task      195 on host ccs0032 reporting.
  Task      196 on host ccs0032 reporting.
  Task      197 on host ccs0032 reporting.
  Task      198 on host ccs0032 reporting.
  Task      199 on host ccs0032 reporting.
  Task      200 on host ccs0035 reporting.
  Task      201 on host ccs0035 reporting.
  Task      202 on host ccs0035 reporting.
  Task      203 on host ccs0035 reporting.
  Task      204 on host ccs0035 reporting.
  Task      205 on host ccs0035 reporting.
  Task      206 on host ccs0035 reporting.
  Task      207 on host ccs0035 reporting.
  Task      208 on host ccs0035 reporting.
  Task      209 on host ccs0035 reporting.
  Task      210 on host ccs0035 reporting.
  Task      211 on host ccs0035 reporting.
  Task      212 on host ccs0035 reporting.
  Task      213 on host ccs0035 reporting.
  Task      214 on host ccs0035 reporting.
  Task      215 on host ccs0035 reporting.
  Task      216 on host ccs0035 reporting.
  Task      217 on host ccs0035 reporting.
  Task      218 on host ccs0035 reporting.
  Task      219 on host ccs0035 reporting.
  Task      220 on host ccs0035 reporting.
  Task      221 on host ccs0035 reporting.
  Task      222 on host ccs0035 reporting.
  Task      223 on host ccs0035 reporting.
  Task      224 on host ccs0035 reporting.
  Task      225 on host ccs0035 reporting.
  Task      226 on host ccs0035 reporting.
  Task      227 on host ccs0035 reporting.
  Task      228 on host ccs0035 reporting.
  Task      229 on host ccs0035 reporting.
  Task      230 on host ccs0035 reporting.
  Task      231 on host ccs0035 reporting.
  Task      232 on host ccs0035 reporting.
  Task      233 on host ccs0035 reporting.
  Task      234 on host ccs0035 reporting.
  Task      235 on host ccs0035 reporting.
  Task      236 on host ccs0035 reporting.
  Task      237 on host ccs0035 reporting.
  Task      238 on host ccs0035 reporting.
  Task      239 on host ccs0035 reporting.

  Memory overcommitment is allowed on your operating system.

  Obtaining array dimensions for all initial allocations:
  
  -----------------------------------------------------------------------
  Parsing control.in (first pass over file, find array dimensions only).
  The contents of control.in will be repeated verbatim below
  unless switched off by setting 'verbatim_writeout .false.' .
  in the first line of control.in .
  -----------------------------------------------------------------------
  
  #===============================================================================
  # FHI-aims file: ./control.in
  # Created using the Atomic Simulation Environment (ASE)
  # Mon Jun  9 05:16:14 2025
  #===============================================================================
  compute_forces                     .true.
  xc                                 mbeef
  k_grid                             3 3 2
  relativistic                       atomic_zora scalar
  occupation_type                    gaussian 0.1
  plus_u_petukhov_mixing             1
  plus_u_use_hydros                  True
  plus_u_matrix_control              True
  sc_accuracy_etot                   1e-06
  sc_accuracy_eev                    0.001
  sc_accuracy_rho                    1e-06
  sc_accuracy_forces                 0.0001
  #===============================================================================
  
  ################################################################################
  #
  #  FHI-aims code project
  #  VB, Fritz-Haber Institut, 2009
  #
  #  Suggested "light" defaults for Ti atom (to be pasted into control.in file)
  #  Be sure to double-check any results obtained with these settings for post-processing,
  #  e.g., with the "tight" defaults and larger basis sets.
  #
  ################################################################################
    species        Ti
  #     global species definitions
      nucleus             22
      mass                47.867
  #
      l_hartree           4
  #
      cut_pot             3.5          1.5  1.0
      basis_dep_cutoff    1e-4
  #
      radial_base         48 5.0
      radial_multiplier   1
      angular_grids       specified
        division   0.5171   50
        division   0.9824  110
        division   1.2917  194
        division   1.4940  302
  #      division   1.6934  434
  #      division   1.8425  590
  #      division   2.1901  770
  #      division   2.2896  974
  #      division   2.8244 1202
  #      outer_grid  974
        outer_grid  302
  ################################################################################
  #
  #  Definition of "minimal" basis
  #
  ################################################################################
  #     valence basis states
      valence      4  s   2.
      valence      3  p   6.
      valence      3  d   2.
  #     ion occupancy
      ion_occ      4  s   1.
      ion_occ      3  p   6.
      ion_occ      3  d   1.
  ################################################################################
  #
  #  Suggested additional basis functions. For production calculations,
  #  uncomment them one after another (the most important basis functions are
  #  listed first).
  #
  #  Constructed for dimers: 1.6 A, 1.85 A, 2.5 A, 3.25 A, 4.25 A
  #
  ################################################################################
  #  "First tier" - improvements: -396.25 meV to -19.41 meV
       hydro 4 f 8
       hydro 3 d 2.7
       ionic 4 p auto
  #     hydro 5 g 11.6
       ionic 4 s auto
  #  "Second tier" - improvements: -16.30 meV to -2.03 meV
  #     hydro 3 d 4.4
  #     hydro 6 h 16
  #     hydro 4 f 9.4
  #     hydro 4 p 4.5
  #     hydro 1 s 0.5
  #  "Third tier" - improvements: -6.28 meV to -0.37 meV
  #     hydro 4 d 6.4
  #     hydro 4 f 10
  #     hydro 5 g 12
  #     hydro 2 p 1.7
  #     hydro 6 h 16.4
  #     hydro 4 s 3.8
  #  Further basis functions: -0.45 meV and smaller improvements
  #     hydro 3 d 8.8
  #     hydro 5 p 18
  #     hydro 4 f 22.4
  #     hydro 5 f 7.2  # -0.16 meV
  #     hydro 3 d 2.1  # -0.11 meV
  #     hydro 5 g 7.4  # -0.09 meV
  plus_u 3 d 2.575
  hubbard_coefficient 0.752 -0.486 0 0
  ################################################################################
  #
  #  FHI-aims code project
  #  VB, Fritz-Haber Institut, 2009
  #
  #  Suggested "light" defaults for O atom (to be pasted into control.in file)
  #  Be sure to double-check any results obtained with these settings for post-processing,
  #  e.g., with the "tight" defaults and larger basis sets.
  #
  ################################################################################
    species        O
  #     global species definitions
      nucleus             8
      mass                15.9994
  #
      l_hartree           4
  #
      cut_pot             3.5  1.5  1.0
      basis_dep_cutoff    1e-4
  #
      radial_base         36 5.0
      radial_multiplier   1
       angular_grids specified
        division   0.2659   50
        division   0.4451  110
        division   0.6052  194
        division   0.7543  302
  #      division   0.8014  434
  #      division   0.8507  590
  #      division   0.8762  770
  #      division   0.9023  974
  #      division   1.2339 1202
  #      outer_grid 974
        outer_grid 302
  ################################################################################
  #
  #  Definition of "minimal" basis
  #
  ################################################################################
  #     valence basis states
      valence      2  s   2.
      valence      2  p   4.
  #     ion occupancy
      ion_occ      2  s   1.
      ion_occ      2  p   3.
  ################################################################################
  #
  #  Suggested additional basis functions. For production calculations,
  #  uncomment them one after another (the most important basis functions are
  #  listed first).
  #
  #  Constructed for dimers: 1.0 A, 1.208 A, 1.5 A, 2.0 A, 3.0 A
  #
  ################################################################################
  #  "First tier" - improvements: -699.05 meV to -159.38 meV
       hydro 2 p 1.8
       hydro 3 d 7.6
       hydro 3 s 6.4
  #  "Second tier" - improvements: -49.91 meV to -5.39 meV
  #     hydro 4 f 11.6
  #     hydro 3 p 6.2
  #     hydro 3 d 5.6
  #     hydro 5 g 17.6
  #     hydro 1 s 0.75
  #  "Third tier" - improvements: -2.83 meV to -0.50 meV
  #     ionic 2 p auto
  #     hydro 4 f 10.8
  #     hydro 4 d 4.7
  #     hydro 2 s 6.8
  #  "Fourth tier" - improvements: -0.40 meV to -0.12 meV
  #     hydro 3 p 5
  #     hydro 3 s 3.3
  #     hydro 5 g 15.6
  #     hydro 4 f 17.6
  #     hydro 4 d 14
  # Further basis functions - -0.08 meV and below
  #     hydro 3 s 2.1
  #     hydro 4 d 11.6
  #     hydro 3 p 16
  #     hydro 2 s 17.2
  
  -----------------------------------------------------------------------
  Completed first pass over input file control.in .
  -----------------------------------------------------------------------
  
  
  -----------------------------------------------------------------------
  Parsing geometry.in (first pass over file, find array dimensions only).
  The contents of geometry.in will be repeated verbatim below
  unless switched off by setting 'verbatim_writeout .false.' .
  in the first line of geometry.in .
  -----------------------------------------------------------------------
  
  #=======================================================
  # FHI-aims file: ./geometry.in
  # Created using the Atomic Simulation Environment (ASE)
  # Mon Jun  9 05:16:14 2025
  #=======================================================
  lattice_vector 9.1913999999999998 0.0000000000000000 0.0000000000000000
  lattice_vector 0.0000000000000000 9.1913999999999998 0.0000000000000000
  lattice_vector 0.0000000000000000 0.0000000000000000 14.7944999999999993
  atom_frac 0.2420797739373440 0.2420809365245211 0.1001102258686948 Ti
  atom_frac 0.0006581405231135 0.0006567501328209 -0.0016196423317069 Ti
  atom_frac 0.0966785437245300 0.4012857758293211 0.0999616639141169 O
  atom_frac 0.4012828323342426 0.0966759152989670 0.0999616441945605 O
  atom_frac 0.1536664363852274 0.1536695040419036 -0.0009633271786083 O
  atom_frac 0.3475417139549401 0.3475389767070199 0.0002664102246559 O
  atom_frac 0.2581126261025417 0.2581128517991466 0.2984673151505880 Ti
  atom_frac 0.0003151204809474 0.0003139417104783 0.2022958866473706 Ti
  atom_frac 0.0981263891860549 0.4028786533198789 0.3004942892660932 O
  atom_frac 0.4028746857172412 0.0981229319393237 0.3004947437449583 O
  atom_frac 0.1536603576341915 0.1536639714549242 0.2006741309119469 O
  atom_frac 0.3475860272543286 0.3475828678503253 0.1995971698149694 O
  atom_frac 0.2460231430188080 0.2460244987588176 0.4955020014644498 Ti
  atom_frac 0.0065928813354014 0.0065987873057497 0.3970837958720986 Ti
  atom_frac 0.0958282835045487 0.4018242593087654 0.5000045853226656 O
  atom_frac 0.4018216781498056 0.0958233187172109 0.5000037635754573 O
  atom_frac 0.1536176355969411 0.1536210826251315 0.3991226319766420 O
  atom_frac 0.3476911714830814 0.3476887011387042 0.4020669551037831 O
  atom_frac 0.2447652152516138 0.2447670403339486 0.7039050643384667 Ti
  atom_frac 0.0040122707333870 0.0040057005848668 0.6000668980700252 Ti
  atom_frac 0.0955182459281606 0.4015327718057083 0.6999491431747291 O
  atom_frac 0.4015304713002685 0.0955132090712817 0.6999497459905167 O
  atom_frac 0.1493316460167445 0.1493343991447356 0.5997954800244628 O
  atom_frac 0.3402481274962548 0.3402371250149001 0.6001559469915356 O
  atom_frac 0.2585128938728551 0.2585132725524372 0.9016249278542401 Ti
  atom_frac 0.0065411624684370 0.0065469346186172 0.8034934820638602 Ti
  atom_frac 0.0981728753746318 0.4029234213899199 0.8993599311975951 O
  atom_frac 0.4029197776792333 0.0981696226619618 0.8993594531718921 O
  atom_frac 0.1534435822930186 0.1534470276647298 0.8009648298116043 O
  atom_frac 0.3475728333097366 0.3475705677165133 0.7974517535709399 O
  atom_frac 0.2475594012672944 0.7554878521184319 0.0999071231945123 Ti
  atom_frac -0.0004263736520402 0.4996240051153577 0.0002288073465907 Ti
  atom_frac 0.0973709813264124 0.9029324275196888 0.0998828579806974 O
  atom_frac 0.4025948046304153 0.5959545720392674 0.0999207741557353 O
  atom_frac 0.1528409394502318 0.6521583512133030 -0.0003183267686974 O
  atom_frac 0.3468836156772645 0.8463228528844747 -0.0000861317544221 O
  atom_frac 0.2530247989028043 0.7429200213037869 0.2998851672906886 Ti
  atom_frac -0.0000943517457998 0.4996412569502849 0.1997502879163486 Ti
  atom_frac 0.0988137647747742 0.9047386657866077 0.2994143252438651 O
  atom_frac 0.4041655523073094 0.5978350006688095 0.3010652499603810 O
  atom_frac 0.1529249512739486 0.6521781810699332 0.2002412707194298 O
  atom_frac 0.3469958640103790 0.8462865045536574 0.1998326230187263 O
  atom_frac 0.2486352208166100 0.7528904169522582 0.4999613208925402 Ti
  atom_frac -0.0010438401838089 0.4985206351156323 0.3995640563497943 Ti
  atom_frac 0.0926624293802476 0.8995716755515454 0.4998208998130115 O
  atom_frac 0.4082185135280240 0.6026277919125063 0.5025062876003894 O
  atom_frac 0.1524477904559054 0.6517366536510255 0.4003491860502351 O
  atom_frac 0.3455456087249349 0.8474418390733361 0.4003038678405926 O
  atom_frac 0.2472089439833219 0.7523315547066833 0.6998370853969631 Ti
  atom_frac -0.0010243831633694 0.5014873356739550 0.5999498028567976 Ti
  atom_frac 0.0932305679554132 0.9000336694575554 0.7001108144089881 O
  atom_frac 0.4087869164837638 0.6032564967706557 0.6974735343313636 O
  atom_frac 0.1528968637441356 0.6505790007833587 0.6000967919239504 O
  atom_frac 0.3435305322776483 0.8494188505806379 0.5998331834753354 O
  atom_frac 0.2527929458645129 0.7423100412803917 0.8999209337643540 Ti
  atom_frac -0.0021223435457705 0.4972373864971710 0.8004858148261844 Ti
  atom_frac 0.0981297033202064 0.9042628553728811 0.9003646280041695 O
  atom_frac 0.4037202920931166 0.5974250351031510 0.8988383146020833 O
  atom_frac 0.1522845945235466 0.6516928815179535 0.7993584137801472 O
  atom_frac 0.3454961395960400 0.8473472599632097 0.7998172937226723 O
  atom_frac 0.7554900134509794 0.2475580133680600 0.0999070670784004 Ti
  atom_frac 0.4996237988076113 -0.0004269154015226 0.0002296355920500 Ti
  atom_frac 0.5959572116322824 0.4025991489797121 0.0999207876090895 O
  atom_frac 0.9029289984665239 0.0973677775106767 0.0998828248605470 O
  atom_frac 0.6521547918520951 0.1528450651996484 -0.0003183656165679 O
  atom_frac 0.8463255355447740 0.3468807887012102 -0.0000861074344785 O
  atom_frac 0.7429157500778961 0.2530289810350658 0.2998845504609007 Ti
  atom_frac 0.4996412006770234 -0.0000951741100007 0.1997494740498841 Ti
  atom_frac 0.5978376889637976 0.4041691603390140 0.3010652698508123 O
  atom_frac 0.9047352310952925 0.0988107875981827 0.2994137198712642 O
  atom_frac 0.6521741332317443 0.1529290300737108 0.2002414517183386 O
  atom_frac 0.8462891611905613 0.3469931928885218 0.1998326435436334 O
  atom_frac 0.7528919305531138 0.2486338949253432 0.4999630501197194 Ti
  atom_frac 0.4985214130185678 -0.0010384495500439 0.3995644571861742 Ti
  atom_frac 0.6026340155443907 0.4082197502973348 0.5025028377470920 O
  atom_frac 0.8995694413263966 0.0926582594466096 0.4998212324150574 O
  atom_frac 0.6517343199539540 0.1524494866871289 0.4003487553296386 O
  atom_frac 0.8474470810651000 0.3455416377845018 0.4003038238308959 O
  atom_frac 0.7523331421641155 0.2472075864966473 0.6998353318855698 Ti
  atom_frac 0.5014838684495820 -0.0010315929816250 0.5999498413761969 Ti
  atom_frac 0.6032630619385507 0.4087884053794961 0.6974769086298377 O
  atom_frac 0.9000318603128764 0.0932266753316885 0.7001106848205232 O
  atom_frac 0.6505760087663506 0.1528997579898266 0.6000968616760243 O
  atom_frac 0.8494209024523574 0.3435280125576562 0.5998330281338772 O
  atom_frac 0.7423059196402459 0.2527969880514860 0.8999213745503633 Ti
  atom_frac 0.4972378192520810 -0.0021171707553478 0.8004852637480917 Ti
  atom_frac 0.5974268685366823 0.4037234916080427 0.8988386857869827 O
  atom_frac 0.9042594791173012 0.0981266047974539 0.9003650846828835 O
  atom_frac 0.6516905483475151 0.1522864509759952 0.7993586757388922 O
  atom_frac 0.8473522565786665 0.3454924060711330 0.7998175151530921 O
  atom_frac 0.7552834618606208 0.7552804843391498 0.1009628393038990 Ti
  atom_frac 0.4979656300652739 0.4979654830120080 0.0016707368491670 Ti
  atom_frac 0.5978990315328082 0.9031760312579794 0.0999961421771223 O
  atom_frac 0.9031722327169712 0.5978961756165952 0.0999961569049887 O
  atom_frac 0.6517588894601692 0.6517630188318113 0.0020865292990646 O
  atom_frac 0.8468533266340664 0.8468499353399574 -0.0000691662622478 O
  atom_frac 0.7424596005689013 0.7424630408157052 0.2946959221983071 Ti
  atom_frac 0.4976653224874918 0.4976650770521432 0.1983403174329021 Ti
  atom_frac 0.5958646257322845 0.9007580674276348 0.2997165186517637 O
  atom_frac 0.9007549446842728 0.5958611312930508 0.2997167788871700 O
  atom_frac 0.6519382460891667 0.6519423370551213 0.1979832416218302 O
  atom_frac 0.8469970725262764 0.8469938076612619 0.2003093539378141 O
  atom_frac 0.7710873401573232 0.7710877701438374 0.4875171793493563 Ti
  atom_frac 0.5074271071402984 0.5074341896426587 0.4047834172297611 Ti
  atom_frac 0.5982833098818245 0.8972467881331314 0.5007416256697665 O
  atom_frac 0.8972472926003259 0.5982823967697692 0.5007418440160906 O
  atom_frac 0.6564654116064140 0.6564688342714081 0.4015971733824377 O
  atom_frac 0.8521388207610231 0.8521363357638224 0.3920674355658202 O
  atom_frac 0.7679454932041079 0.7679454593533966 0.7137220150257725 Ti
  atom_frac 0.4773009246650575 0.4772864403229696 0.6000864597911919 Ti
  atom_frac 0.5977922118968300 0.8961905108110843 0.6990449474449270 O
  atom_frac 0.8961913224164365 0.5977915836986103 0.6990447817430417 O
  atom_frac 0.8358050578562531 0.8358029990095621 0.6005050057659844 O
  atom_frac 0.7430478254368545 0.7430515875969698 0.9070992342227128 Ti
  atom_frac 0.5058164451852378 0.5058234089692076 0.7949551986666141 Ti
  atom_frac 0.5961604240879591 0.9008415251967682 0.9002879747850249 O
  atom_frac 0.9008388401040391 0.5961574951665707 0.9002875639975343 O
  atom_frac 0.6564083314048069 0.6564115802410636 0.7992596862748689 O
  atom_frac 0.8514243104409285 0.8514215219427118 0.8066195639264913 O
  
  -----------------------------------------------------------------------
  Completed first pass over input file geometry.in .
  -----------------------------------------------------------------------
  

  Basic array size parameters:
  | Number of species                 :        2
  | Number of atoms                   :      119
  | Number of lattice vectors         :        3
  | Max. basis fn. angular momentum   :        3
  | Max. atomic/ionic basis occupied n:        4
  | Max. number of basis fn. types    :        3
  | Max. radial fns per species/type  :        7
  | Max. logarithmic grid size        :     1383
  | Max. radial integration grid size :       48
  | Max. angular integration grid size:      302
  | Max. angular grid division number :        8
  | Radial grid for Hartree potential :     1383
  | Number of spin channels           :        1
  | Max. number of (n,l) shells per species with '+U' treatment:        1

------------------------------------------------------------
          Reading file control.in.
------------------------------------------------------------
  Forces will be computed.
 * Warning - a code part requested a citation which was not known
 * please add it to init_citations.f90.
 * Missing reference tag: m-BEEF

  XC: Using the m-BEEF functional.
  Using libxc - Initializing
  Libxc version: 6.1.0


  ** PLEASE ** be careful using LibXC. Whilst most of the LDA, GGA and MGGA functionals,
  and hybrid variations therein, should be stable (though we always recommend testing!),
  there are several fancy functionals with e.g. range-separation, like HSE03/HSE06/LC-PBEh,
  and also MGGA functionals that depend on the laplacian of the density, like BR89,
  that are not fully implemented due to the infrastrucutre for these functionals being incomplete or non-generic.
  If you want to use these functionals please contact the development team and we will work on them with you!

  You have selected libxc functional MGGA_X_MBEEF (249)
    - Description: mBEEF exchange
    - Type: MGGA(Exchange)
    - Reference to Literature:
      [1] J. Wellendorff, K. T. Lundgaard, K. W. Jacobsen, and T. Bligaard.,  J. Chem. Phys. 140, 144107 (2014)

  You have selected libxc functional GGA_C_PBE_SOL (133)
    - Description: Perdew, Burke & Ernzerhof SOL
    - Type: GGA(Correlation)
    - Reference to Literature:
      [1] J. P. Perdew, A. Ruzsinszky, G. I. Csonka, O. A. Vydrov, G. E. Scuseria, L. A. Constantin, X. Zhou, and K. Burke.,  Phys. Rev. Lett. 100, 136406 (2008)

  Switching on meta-ggas
  Found k-point grid:         3         3         2
  Scalar relativistic treatment of kinetic energy: on-site free-atom approximation to ZORA.
  Occupation type: Gaussian broadening, width =   0.100000E+00 eV.
  Fixing petukhov mixing factor to   1.000000000000
  hydrogenic basis funktions also used for DFT+U reference states
  Reading DFT+U occupation matrix, from file
  Convergence accuracy of total energy:  0.1000E-05
  Convergence accuracy of sum of eigenvalues:  0.1000E-02
  Convergence accuracy of self-consistent charge density:  0.1000E-05
  Convergence accuracy of forces:  0.1000E-03
 
  Reading configuration options for species Ti                  .
  | Found nuclear charge :  22.0000
  | Found atomic mass :    47.8670000000000      amu
  | Found l_max for Hartree potential  :   4
  | Found cutoff potl. onset [A], width [A], scale factor :    3.50000    1.50000    1.00000
  | Threshold for basis-dependent cutoff potential is   0.100000E-03
  | Found data for basic radial integration grid :    48 points, outermost radius =    5.000 A
  | Found multiplier for basic radial grid :   1
  | Found angular grid specification: user-specified.
  | Specified grid contains     5 separate shells.
  | Check grid settings after all constraints further below.
  | Found free-atom valence shell :  4 s   2.000
  | Found free-atom valence shell :  3 p   6.000
  | Found free-atom valence shell :  3 d   2.000
  | Found free-ion valence shell :  4 s   1.000
  | Found free-ion valence shell :  3 p   6.000
  | Found free-ion valence shell :  3 d   1.000
  | Found hydrogenic basis function :  4 f   8.000
  | Found hydrogenic basis function :  3 d   2.700
  | Found ionic basis function :  4 p , default cutoff radius.
  | Found ionic basis function :  4 s , default cutoff radius.
  | Found request for '+U' treatment for  3 d shell, U =     2.575000 eV.
  | Found coefficents for linear combination of hubbard projectors 
  Species Ti                  : Missing cutoff potential type.
  Defaulting to exp(1/x)/(1-x)^2 type cutoff potential.
  Species Ti: No 'logarithmic' tag. Using default grid for free atom:
  | Default logarithmic grid data [bohr] : 0.1000E-03 0.1000E+03 0.1012E+01
  | Will include ionic basis functions of  2.0-fold positive Ti                   ion.
  Species Ti: On-site basis accuracy parameter (for Gram-Schmidt orthonormalisation) not specified.
  Using default value basis_acc =  0.1000000E-03.
  Species Ti                  : Using default innermost maximum threshold i_radial=  2 for radial functions.
  Species Ti                  : Default cutoff onset for free atom density etc. : 0.35000000E+01 AA.
  Species Ti                  : Basic radial grid will be enhanced according to radial_multiplier =   1, to contain    48 grid points.
 
  Reading configuration options for species O                   .
  | Found nuclear charge :   8.0000
  | Found atomic mass :    15.9994000000000      amu
  | Found l_max for Hartree potential  :   4
  | Found cutoff potl. onset [A], width [A], scale factor :    3.50000    1.50000    1.00000
  | Threshold for basis-dependent cutoff potential is   0.100000E-03
  | Found data for basic radial integration grid :    36 points, outermost radius =    5.000 A
  | Found multiplier for basic radial grid :   1
  | Found angular grid specification: user-specified.
  | Specified grid contains     5 separate shells.
  | Check grid settings after all constraints further below.
  | Found free-atom valence shell :  2 s   2.000
  | Found free-atom valence shell :  2 p   4.000
  | Found free-ion valence shell :  2 s   1.000
  | Found free-ion valence shell :  2 p   3.000
  | Found hydrogenic basis function :  2 p   1.800
  | Found hydrogenic basis function :  3 d   7.600
  | Found hydrogenic basis function :  3 s   6.400
  Species O                   : Missing cutoff potential type.
  Defaulting to exp(1/x)/(1-x)^2 type cutoff potential.
  Species O : No 'logarithmic' tag. Using default grid for free atom:
  | Default logarithmic grid data [bohr] : 0.1000E-03 0.1000E+03 0.1012E+01
  Species O : On-site basis accuracy parameter (for Gram-Schmidt orthonormalisation) not specified.
  Using default value basis_acc =  0.1000000E-03.
  Species O                   : Using default innermost maximum threshold i_radial=  2 for radial functions.
  Species O                   : Default cutoff onset for free atom density etc. : 0.35000000E+01 AA.
  Species O                   : Basic radial grid will be enhanced according to radial_multiplier =   1, to contain    36 grid points.
 
  Finished reading input file 'control.in'.
 
------------------------------------------------------------


------------------------------------------------------------
          Reading geometry description geometry.in.
------------------------------------------------------------
  | The smallest distance between any two atoms is         1.75109137 AA.
  | The first atom of this pair is atom number                    109 .
  | The second atom of this pair is atom number                   119 .
  | Wigner-Seitz cell of the first atom image           0     0     0 .
  | (The Wigner-Seitz cell of the second atom is 0 0 0  by definition.)

  Symmetry information by spglib:
  | Precision set to  0.1E-04
  | Number of Operations  : 1
  | Space group           : 1
  | International         : P1
  | Schoenflies           : C1^1
  Input structure read successfully.
  The structure contains      119 atoms,  and a total of       1512.000 electrons.

  Input geometry:
  | Unit cell:
  |        9.19140000        0.00000000        0.00000000
  |        0.00000000        9.19140000        0.00000000
  |        0.00000000        0.00000000       14.79450000
  | Atomic structure:
  |       Atom                x [A]            y [A]            z [A]
  |    1: Species Ti            2.22505203        2.22506272        1.48108074
  |    2: Species Ti            0.00604923        0.00603645       -0.02396180
  |    3: Species O             0.88861117        3.68837808        1.47888284
  |    4: Species O             3.68835103        0.88858701        1.47888255
  |    5: Species O             1.41240968        1.41243788       -0.01425194
  |    6: Species O             3.19439491        3.19436975        0.00394141
  |    7: Species Ti            2.37241639        2.37241847        4.41567469
  |    8: Species Ti            0.00289640        0.00288556        2.99286650
  |    9: Species O             0.90191889        3.70301885        4.44566276
  |   10: Species O             3.70298239        0.90188712        4.44566949
  |   11: Species O             1.41235381        1.41238703        2.96887343
  |   12: Species O             3.19480221        3.19477317        2.95294033
  |   13: Species Ti            2.26129712        2.26130958        7.33070436
  |   14: Species Ti            0.06059781        0.06065209        5.87465622
  |   15: Species O             0.88079609        3.69332750        7.39731784
  |   16: Species O             3.69330377        0.88075045        7.39730568
  |   17: Species O             1.41196114        1.41199282        5.90481978
  |   18: Species O             3.19576863        3.19574593        5.94837957
  |   19: Species Ti            2.24973500        2.24975177       10.41392347
  |   20: Species Ti            0.03687839        0.03681800        8.87768972
  |   21: Species O             0.87794641        3.69064832       10.35539760
  |   22: Species O             3.69062717        0.87790011       10.35540652
  |   23: Species O             1.37256689        1.37259220        8.87367423
  |   24: Species O             3.12735664        3.12725551        8.87900716
  |   25: Species Ti            2.37609541        2.37609889       13.33909000
  |   26: Species Ti            0.06012244        0.06017549       11.88728432
  |   27: Species O             0.90234617        3.70343034       13.30558050
  |   28: Species O             3.70339684        0.90231627       13.30557343
  |   29: Species O             1.41036134        1.41039301       11.84987417
  |   30: Species O             3.19468094        3.19466012       11.79789997
  |   31: Species Ti            2.27541748        6.94399104        1.47807593
  |   32: Species Ti           -0.00391897        4.59224408        0.00338509
  |   33: Species O             0.89497564        8.29921311        1.47771694
  |   34: Species O             3.70040989        5.47765685        1.47827789
  |   35: Species O             1.40482221        5.99424827       -0.00470949
  |   36: Species O             3.18834607        7.77889187       -0.00127428
  |   37: Species Ti            2.32565214        6.82847508        4.43665111
  |   38: Species Ti           -0.00086722        4.59240265        2.95520563
  |   39: Species O             0.90823684        8.31581497        4.42968523
  |   40: Species O             3.71484726        5.49494063        4.45410984
  |   41: Species O             1.40559440        5.99443053        2.96246948
  |   42: Species O             3.18937778        7.77855778        2.95642374
  |   43: Species Ti            2.28530577        6.92011698        7.39667776
  |   44: Species Ti           -0.00959435        4.58210257        5.91135043
  |   45: Species O             0.85169745        8.26832310        7.39460030
  |   46: Species O             3.75209965        5.53899309        7.43432927
  |   47: Species O             1.40120862        5.99037228        5.92296603
  |   48: Species O             3.17604791        7.78917692        5.92229557
  |   49: Species Ti            2.27219629        6.91498025       10.35373976
  |   50: Species Ti           -0.00941552        4.60937070        8.87595736
  |   51: Species O             0.85691944        8.27256947       10.35778944
  |   52: Species O             3.75732406        5.54477176       10.31877220
  |   53: Species O             1.40533623        5.97973183        8.87813199
  |   54: Species O             3.15752653        7.80734842        8.87423203
  |   55: Species Ti            2.32352108        6.82286851       13.31388025
  |   56: Species Ti           -0.01950731        4.57030771       11.84278739
  |   57: Species O             0.90194936        8.31144161       13.32044449
  |   58: Species O             3.71075469        5.49117247       13.29786345
  |   59: Species O             1.39970862        5.98996995       11.82610805
  |   60: Species O             3.17559322        7.78830761       11.83289695
  |   61: Species Ti            6.94401091        2.27540472        1.47807510
  |   62: Species Ti            4.59224218       -0.00392395        0.00339734
  |   63: Species O             5.47768111        3.70044982        1.47827809
  |   64: Species O             8.29918160        0.89494619        1.47771645
  |   65: Species O             5.99421555        1.40486013       -0.00471006
  |   66: Species O             7.77891653        3.18832008       -0.00127392
  |   67: Species Ti            6.82843583        2.32569058        4.43664198
  |   68: Species Ti            4.59240213       -0.00087478        2.95519359
  |   69: Species O             5.49496533        3.71488042        4.45411013
  |   70: Species O             8.31578340        0.90820947        4.42967628
  |   71: Species O             5.99439333        1.40563189        2.96247216
  |   72: Species O             7.77858220        3.18935323        2.95642404
  |   73: Species Ti            6.92013089        2.28529358        7.39670334
  |   74: Species Ti            4.58210972       -0.00954481        5.91135636
  |   75: Species O             5.53905029        3.75211101        7.43427823
  |   76: Species O             8.26830256        0.85165913        7.39460522
  |   77: Species O             5.99035083        1.40122421        5.92295966
  |   78: Species O             7.78922510        3.17601141        5.92229492
  |   79: Species Ti            6.91499484        2.27218381       10.35371382
  |   80: Species Ti            4.60933883       -0.00948178        8.87595793
  |   81: Species O             5.54483211        3.75733775       10.31882212
  |   82: Species O             8.27255284        0.85688366       10.35778753
  |   83: Species O             5.97970433        1.40536284        8.87813302
  |   84: Species O             7.80736728        3.15750337        8.87422973
  |   85: Species Ti            6.82283063        2.32355824       13.31388678
  |   86: Species Ti            4.57031169       -0.01945976       11.84277923
  |   87: Species O             5.49118932        3.71078410       13.29786894
  |   88: Species O             8.31141058        0.90192088       13.32045125
  |   89: Species O             5.98994851        1.39972569       11.82611193
  |   90: Species O             7.78835353        3.17555890       11.83290023
  |   91: Species Ti            6.94211241        6.94208504        1.49369473
  |   92: Species Ti            4.57700129        4.57699994        0.02471772
  |   93: Species O             5.49552916        8.30145217        1.47939293
  |   94: Species O             8.30141726        5.49550291        1.47939314
  |   95: Species O             5.99057666        5.99061461        0.03086916
  |   96: Species O             7.78376767        7.78373650       -0.00102328
  |   97: Species Ti            6.82424317        6.82427479        4.35987882
  |   98: Species Ti            4.57424105        4.57423879        2.93434583
  |   99: Species O             5.47683012        8.27922770        4.43415604
  |  100: Species O             8.27919900        5.47679800        4.43415989
  |  101: Species O             5.99222520        5.99226280        2.92906307
  |  102: Species O             7.78508889        7.78505888        2.96347674
  |  103: Species Ti            7.08737218        7.08737613        7.21257291
  |  104: Species Ti            4.66396551        4.66403061        5.98856827
  |  105: Species O             5.49906121        8.24695413        7.40822198
  |  106: Species O             8.24695877        5.49905282        7.40822521
  |  107: Species O             6.03383618        6.03386764        5.94142938
  |  108: Species O             7.83234876        7.83232592        5.80044168
  |  109: Species Ti            7.05849421        7.05849390       10.55916035
  |  110: Species Ti            4.38706372        4.38693059        8.87797913
  |  111: Species O             5.49454734        8.23724546       10.34202047
  |  112: Species O             8.23725292        5.49454156       10.34201802
  |  113: Species O             7.68221861        7.68219969        8.88417131
  |  114: Species Ti            6.82964978        6.82968436       13.42007962
  |  115: Species Ti            4.64916127        4.64922528       11.76096469
  |  116: Species O             5.47954892        8.27999479       13.31931044
  |  117: Species O             8.27997011        5.47952200       13.31930437
  |  118: Species O             6.03331154        6.03334140       11.82464743
  |  119: Species O             7.82578141        7.82575578       11.93353314

  Lattice parameters for 3D lattice (in Angstroms) :     9.191400    9.191400   14.794500
  Angle(s) between unit vectors (in degrees)       :    90.000000   90.000000   90.000000


  Quantities derived from the lattice vectors (in Angstrom^-1):
  | Reciprocal lattice vector 1:  0.683594  0.000000  0.000000
  | Reciprocal lattice vector 2:  0.000000  0.683594  0.000000
  | Reciprocal lattice vector 3:  0.000000  0.000000  0.424697
  | Unit cell volume                               :   0.124987E+04  Angstrom^3

  Fractional coordinates:
                         L1                L2                L3
       atom_frac         0.24207977        0.24208094        0.10011023  Ti
       atom_frac         0.00065814        0.00065675       -0.00161964  Ti
       atom_frac         0.09667854        0.40128578        0.09996166  O
       atom_frac         0.40128283        0.09667592        0.09996164  O
       atom_frac         0.15366644        0.15366950       -0.00096333  O
       atom_frac         0.34754171        0.34753898        0.00026641  O
       atom_frac         0.25811263        0.25811285        0.29846732  Ti
       atom_frac         0.00031512        0.00031394        0.20229589  Ti
       atom_frac         0.09812639        0.40287865        0.30049429  O
       atom_frac         0.40287469        0.09812293        0.30049474  O
       atom_frac         0.15366036        0.15366397        0.20067413  O
       atom_frac         0.34758603        0.34758287        0.19959717  O
       atom_frac         0.24602314        0.24602450        0.49550200  Ti
       atom_frac         0.00659288        0.00659879        0.39708380  Ti
       atom_frac         0.09582828        0.40182426        0.50000459  O
       atom_frac         0.40182168        0.09582332        0.50000376  O
       atom_frac         0.15361764        0.15362108        0.39912263  O
       atom_frac         0.34769117        0.34768870        0.40206696  O
       atom_frac         0.24476522        0.24476704        0.70390506  Ti
       atom_frac         0.00401227        0.00400570        0.60006690  Ti
       atom_frac         0.09551825        0.40153277        0.69994914  O
       atom_frac         0.40153047        0.09551321        0.69994975  O
       atom_frac         0.14933165        0.14933440        0.59979548  O
       atom_frac         0.34024813        0.34023713        0.60015595  O
       atom_frac         0.25851289        0.25851327        0.90162493  Ti
       atom_frac         0.00654116        0.00654693        0.80349348  Ti
       atom_frac         0.09817288        0.40292342        0.89935993  O
       atom_frac         0.40291978        0.09816962        0.89935945  O
       atom_frac         0.15344358        0.15344703        0.80096483  O
       atom_frac         0.34757283        0.34757057        0.79745175  O
       atom_frac         0.24755940        0.75548785        0.09990712  Ti
       atom_frac        -0.00042637        0.49962401        0.00022881  Ti
       atom_frac         0.09737098        0.90293243        0.09988286  O
       atom_frac         0.40259480        0.59595457        0.09992077  O
       atom_frac         0.15284094        0.65215835       -0.00031833  O
       atom_frac         0.34688362        0.84632285       -0.00008613  O
       atom_frac         0.25302480        0.74292002        0.29988517  Ti
       atom_frac        -0.00009435        0.49964126        0.19975029  Ti
       atom_frac         0.09881376        0.90473867        0.29941433  O
       atom_frac         0.40416555        0.59783500        0.30106525  O
       atom_frac         0.15292495        0.65217818        0.20024127  O
       atom_frac         0.34699586        0.84628650        0.19983262  O
       atom_frac         0.24863522        0.75289042        0.49996132  Ti
       atom_frac        -0.00104384        0.49852064        0.39956406  Ti
       atom_frac         0.09266243        0.89957168        0.49982090  O
       atom_frac         0.40821851        0.60262779        0.50250629  O
       atom_frac         0.15244779        0.65173665        0.40034919  O
       atom_frac         0.34554561        0.84744184        0.40030387  O
       atom_frac         0.24720894        0.75233155        0.69983709  Ti
       atom_frac        -0.00102438        0.50148734        0.59994980  Ti
       atom_frac         0.09323057        0.90003367        0.70011081  O
       atom_frac         0.40878692        0.60325650        0.69747353  O
       atom_frac         0.15289686        0.65057900        0.60009679  O
       atom_frac         0.34353053        0.84941885        0.59983318  O
       atom_frac         0.25279295        0.74231004        0.89992093  Ti
       atom_frac        -0.00212234        0.49723739        0.80048581  Ti
       atom_frac         0.09812970        0.90426286        0.90036463  O
       atom_frac         0.40372029        0.59742504        0.89883831  O
       atom_frac         0.15228459        0.65169288        0.79935841  O
       atom_frac         0.34549614        0.84734726        0.79981729  O
       atom_frac         0.75549001        0.24755801        0.09990707  Ti
       atom_frac         0.49962380       -0.00042692        0.00022964  Ti
       atom_frac         0.59595721        0.40259915        0.09992079  O
       atom_frac         0.90292900        0.09736778        0.09988282  O
       atom_frac         0.65215479        0.15284507       -0.00031837  O
       atom_frac         0.84632554        0.34688079       -0.00008611  O
       atom_frac         0.74291575        0.25302898        0.29988455  Ti
       atom_frac         0.49964120       -0.00009517        0.19974947  Ti
       atom_frac         0.59783769        0.40416916        0.30106527  O
       atom_frac         0.90473523        0.09881079        0.29941372  O
       atom_frac         0.65217413        0.15292903        0.20024145  O
       atom_frac         0.84628916        0.34699319        0.19983264  O
       atom_frac         0.75289193        0.24863389        0.49996305  Ti
       atom_frac         0.49852141       -0.00103845        0.39956446  Ti
       atom_frac         0.60263402        0.40821975        0.50250284  O
       atom_frac         0.89956944        0.09265826        0.49982123  O
       atom_frac         0.65173432        0.15244949        0.40034876  O
       atom_frac         0.84744708        0.34554164        0.40030382  O
       atom_frac         0.75233314        0.24720759        0.69983533  Ti
       atom_frac         0.50148387       -0.00103159        0.59994984  Ti
       atom_frac         0.60326306        0.40878841        0.69747691  O
       atom_frac         0.90003186        0.09322668        0.70011068  O
       atom_frac         0.65057601        0.15289976        0.60009686  O
       atom_frac         0.84942090        0.34352801        0.59983303  O
       atom_frac         0.74230592        0.25279699        0.89992137  Ti
       atom_frac         0.49723782       -0.00211717        0.80048526  Ti
       atom_frac         0.59742687        0.40372349        0.89883869  O
       atom_frac         0.90425948        0.09812660        0.90036508  O
       atom_frac         0.65169055        0.15228645        0.79935868  O
       atom_frac         0.84735226        0.34549241        0.79981752  O
       atom_frac         0.75528346        0.75528048        0.10096284  Ti
       atom_frac         0.49796563        0.49796548        0.00167074  Ti
       atom_frac         0.59789903        0.90317603        0.09999614  O
       atom_frac         0.90317223        0.59789618        0.09999616  O
       atom_frac         0.65175889        0.65176302        0.00208653  O
       atom_frac         0.84685333        0.84684994       -0.00006917  O
       atom_frac         0.74245960        0.74246304        0.29469592  Ti
       atom_frac         0.49766532        0.49766508        0.19834032  Ti
       atom_frac         0.59586463        0.90075807        0.29971652  O
       atom_frac         0.90075494        0.59586113        0.29971678  O
       atom_frac         0.65193825        0.65194234        0.19798324  O
       atom_frac         0.84699707        0.84699381        0.20030935  O
       atom_frac         0.77108734        0.77108777        0.48751718  Ti
       atom_frac         0.50742711        0.50743419        0.40478342  Ti
       atom_frac         0.59828331        0.89724679        0.50074163  O
       atom_frac         0.89724729        0.59828240        0.50074184  O
       atom_frac         0.65646541        0.65646883        0.40159717  O
       atom_frac         0.85213882        0.85213634        0.39206744  O
       atom_frac         0.76794549        0.76794546        0.71372202  Ti
       atom_frac         0.47730092        0.47728644        0.60008646  Ti
       atom_frac         0.59779221        0.89619051        0.69904495  O
       atom_frac         0.89619132        0.59779158        0.69904478  O
       atom_frac         0.83580506        0.83580300        0.60050501  O
       atom_frac         0.74304783        0.74305159        0.90709923  Ti
       atom_frac         0.50581645        0.50582341        0.79495520  Ti
       atom_frac         0.59616042        0.90084153        0.90028797  O
       atom_frac         0.90083884        0.59615750        0.90028756  O
       atom_frac         0.65640833        0.65641158        0.79925969  O
       atom_frac         0.85142431        0.85142152        0.80661956  O

  Slab Identifier: This seems to be a bulk system.
 
  Finished reading input file 'geometry.in'.
 

 
  Consistency checks for stacksize environment parameter are next.
 
  | Maximum stacksize for task 0: unlimited
  | Maximum stacksize for task 1: unlimited
  | Maximum stacksize for task 2: unlimited
  | Maximum stacksize for task 3: unlimited
  | Maximum stacksize for task 4: unlimited
  | Maximum stacksize for task 5: unlimited
  | Maximum stacksize for task 6: unlimited
  | Maximum stacksize for task 7: unlimited
  | Maximum stacksize for task 8: unlimited
  | Maximum stacksize for task 9: unlimited
  | Maximum stacksize for task 10: unlimited
  | Maximum stacksize for task 11: unlimited
  | Maximum stacksize for task 12: unlimited
  | Maximum stacksize for task 13: unlimited
  | Maximum stacksize for task 14: unlimited
  | Maximum stacksize for task 15: unlimited
  | Maximum stacksize for task 16: unlimited
  | Maximum stacksize for task 17: unlimited
  | Maximum stacksize for task 18: unlimited
  | Maximum stacksize for task 19: unlimited
  | Maximum stacksize for task 20: unlimited
  | Maximum stacksize for task 21: unlimited
  | Maximum stacksize for task 22: unlimited
  | Maximum stacksize for task 23: unlimited
  | Maximum stacksize for task 24: unlimited
  | Maximum stacksize for task 25: unlimited
  | Maximum stacksize for task 26: unlimited
  | Maximum stacksize for task 27: unlimited
  | Maximum stacksize for task 28: unlimited
  | Maximum stacksize for task 29: unlimited
  | Maximum stacksize for task 30: unlimited
  | Maximum stacksize for task 31: unlimited
  | Maximum stacksize for task 32: unlimited
  | Maximum stacksize for task 33: unlimited
  | Maximum stacksize for task 34: unlimited
  | Maximum stacksize for task 35: unlimited
  | Maximum stacksize for task 36: unlimited
  | Maximum stacksize for task 37: unlimited
  | Maximum stacksize for task 38: unlimited
  | Maximum stacksize for task 39: unlimited
  | Maximum stacksize for task 40: unlimited
  | Maximum stacksize for task 41: unlimited
  | Maximum stacksize for task 42: unlimited
  | Maximum stacksize for task 43: unlimited
  | Maximum stacksize for task 44: unlimited
  | Maximum stacksize for task 45: unlimited
  | Maximum stacksize for task 46: unlimited
  | Maximum stacksize for task 47: unlimited
  | Maximum stacksize for task 48: unlimited
  | Maximum stacksize for task 49: unlimited
  | Maximum stacksize for task 50: unlimited
  | Maximum stacksize for task 51: unlimited
  | Maximum stacksize for task 52: unlimited
  | Maximum stacksize for task 53: unlimited
  | Maximum stacksize for task 54: unlimited
  | Maximum stacksize for task 55: unlimited
  | Maximum stacksize for task 56: unlimited
  | Maximum stacksize for task 57: unlimited
  | Maximum stacksize for task 58: unlimited
  | Maximum stacksize for task 59: unlimited
  | Maximum stacksize for task 60: unlimited
  | Maximum stacksize for task 61: unlimited
  | Maximum stacksize for task 62: unlimited
  | Maximum stacksize for task 63: unlimited
  | Maximum stacksize for task 64: unlimited
  | Maximum stacksize for task 65: unlimited
  | Maximum stacksize for task 66: unlimited
  | Maximum stacksize for task 67: unlimited
  | Maximum stacksize for task 68: unlimited
  | Maximum stacksize for task 69: unlimited
  | Maximum stacksize for task 70: unlimited
  | Maximum stacksize for task 71: unlimited
  | Maximum stacksize for task 72: unlimited
  | Maximum stacksize for task 73: unlimited
  | Maximum stacksize for task 74: unlimited
  | Maximum stacksize for task 75: unlimited
  | Maximum stacksize for task 76: unlimited
  | Maximum stacksize for task 77: unlimited
  | Maximum stacksize for task 78: unlimited
  | Maximum stacksize for task 79: unlimited
  | Maximum stacksize for task 80: unlimited
  | Maximum stacksize for task 81: unlimited
  | Maximum stacksize for task 82: unlimited
  | Maximum stacksize for task 83: unlimited
  | Maximum stacksize for task 84: unlimited
  | Maximum stacksize for task 85: unlimited
  | Maximum stacksize for task 86: unlimited
  | Maximum stacksize for task 87: unlimited
  | Maximum stacksize for task 88: unlimited
  | Maximum stacksize for task 89: unlimited
  | Maximum stacksize for task 90: unlimited
  | Maximum stacksize for task 91: unlimited
  | Maximum stacksize for task 92: unlimited
  | Maximum stacksize for task 93: unlimited
  | Maximum stacksize for task 94: unlimited
  | Maximum stacksize for task 95: unlimited
  | Maximum stacksize for task 96: unlimited
  | Maximum stacksize for task 97: unlimited
  | Maximum stacksize for task 98: unlimited
  | Maximum stacksize for task 99: unlimited
  | Maximum stacksize for task 100: unlimited
  | Maximum stacksize for task 101: unlimited
  | Maximum stacksize for task 102: unlimited
  | Maximum stacksize for task 103: unlimited
  | Maximum stacksize for task 104: unlimited
  | Maximum stacksize for task 105: unlimited
  | Maximum stacksize for task 106: unlimited
  | Maximum stacksize for task 107: unlimited
  | Maximum stacksize for task 108: unlimited
  | Maximum stacksize for task 109: unlimited
  | Maximum stacksize for task 110: unlimited
  | Maximum stacksize for task 111: unlimited
  | Maximum stacksize for task 112: unlimited
  | Maximum stacksize for task 113: unlimited
  | Maximum stacksize for task 114: unlimited
  | Maximum stacksize for task 115: unlimited
  | Maximum stacksize for task 116: unlimited
  | Maximum stacksize for task 117: unlimited
  | Maximum stacksize for task 118: unlimited
  | Maximum stacksize for task 119: unlimited
  | Maximum stacksize for task 120: unlimited
  | Maximum stacksize for task 121: unlimited
  | Maximum stacksize for task 122: unlimited
  | Maximum stacksize for task 123: unlimited
  | Maximum stacksize for task 124: unlimited
  | Maximum stacksize for task 125: unlimited
  | Maximum stacksize for task 126: unlimited
  | Maximum stacksize for task 127: unlimited
  | Maximum stacksize for task 128: unlimited
  | Maximum stacksize for task 129: unlimited
  | Maximum stacksize for task 130: unlimited
  | Maximum stacksize for task 131: unlimited
  | Maximum stacksize for task 132: unlimited
  | Maximum stacksize for task 133: unlimited
  | Maximum stacksize for task 134: unlimited
  | Maximum stacksize for task 135: unlimited
  | Maximum stacksize for task 136: unlimited
  | Maximum stacksize for task 137: unlimited
  | Maximum stacksize for task 138: unlimited
  | Maximum stacksize for task 139: unlimited
  | Maximum stacksize for task 140: unlimited
  | Maximum stacksize for task 141: unlimited
  | Maximum stacksize for task 142: unlimited
  | Maximum stacksize for task 143: unlimited
  | Maximum stacksize for task 144: unlimited
  | Maximum stacksize for task 145: unlimited
  | Maximum stacksize for task 146: unlimited
  | Maximum stacksize for task 147: unlimited
  | Maximum stacksize for task 148: unlimited
  | Maximum stacksize for task 149: unlimited
  | Maximum stacksize for task 150: unlimited
  | Maximum stacksize for task 151: unlimited
  | Maximum stacksize for task 152: unlimited
  | Maximum stacksize for task 153: unlimited
  | Maximum stacksize for task 154: unlimited
  | Maximum stacksize for task 155: unlimited
  | Maximum stacksize for task 156: unlimited
  | Maximum stacksize for task 157: unlimited
  | Maximum stacksize for task 158: unlimited
  | Maximum stacksize for task 159: unlimited
  | Maximum stacksize for task 160: unlimited
  | Maximum stacksize for task 161: unlimited
  | Maximum stacksize for task 162: unlimited
  | Maximum stacksize for task 163: unlimited
  | Maximum stacksize for task 164: unlimited
  | Maximum stacksize for task 165: unlimited
  | Maximum stacksize for task 166: unlimited
  | Maximum stacksize for task 167: unlimited
  | Maximum stacksize for task 168: unlimited
  | Maximum stacksize for task 169: unlimited
  | Maximum stacksize for task 170: unlimited
  | Maximum stacksize for task 171: unlimited
  | Maximum stacksize for task 172: unlimited
  | Maximum stacksize for task 173: unlimited
  | Maximum stacksize for task 174: unlimited
  | Maximum stacksize for task 175: unlimited
  | Maximum stacksize for task 176: unlimited
  | Maximum stacksize for task 177: unlimited
  | Maximum stacksize for task 178: unlimited
  | Maximum stacksize for task 179: unlimited
  | Maximum stacksize for task 180: unlimited
  | Maximum stacksize for task 181: unlimited
  | Maximum stacksize for task 182: unlimited
  | Maximum stacksize for task 183: unlimited
  | Maximum stacksize for task 184: unlimited
  | Maximum stacksize for task 185: unlimited
  | Maximum stacksize for task 186: unlimited
  | Maximum stacksize for task 187: unlimited
  | Maximum stacksize for task 188: unlimited
  | Maximum stacksize for task 189: unlimited
  | Maximum stacksize for task 190: unlimited
  | Maximum stacksize for task 191: unlimited
  | Maximum stacksize for task 192: unlimited
  | Maximum stacksize for task 193: unlimited
  | Maximum stacksize for task 194: unlimited
  | Maximum stacksize for task 195: unlimited
  | Maximum stacksize for task 196: unlimited
  | Maximum stacksize for task 197: unlimited
  | Maximum stacksize for task 198: unlimited
  | Maximum stacksize for task 199: unlimited
  | Maximum stacksize for task 200: unlimited
  | Maximum stacksize for task 201: unlimited
  | Maximum stacksize for task 202: unlimited
  | Maximum stacksize for task 203: unlimited
  | Maximum stacksize for task 204: unlimited
  | Maximum stacksize for task 205: unlimited
  | Maximum stacksize for task 206: unlimited
  | Maximum stacksize for task 207: unlimited
  | Maximum stacksize for task 208: unlimited
  | Maximum stacksize for task 209: unlimited
  | Maximum stacksize for task 210: unlimited
  | Maximum stacksize for task 211: unlimited
  | Maximum stacksize for task 212: unlimited
  | Maximum stacksize for task 213: unlimited
  | Maximum stacksize for task 214: unlimited
  | Maximum stacksize for task 215: unlimited
  | Maximum stacksize for task 216: unlimited
  | Maximum stacksize for task 217: unlimited
  | Maximum stacksize for task 218: unlimited
  | Maximum stacksize for task 219: unlimited
  | Maximum stacksize for task 220: unlimited
  | Maximum stacksize for task 221: unlimited
  | Maximum stacksize for task 222: unlimited
  | Maximum stacksize for task 223: unlimited
  | Maximum stacksize for task 224: unlimited
  | Maximum stacksize for task 225: unlimited
  | Maximum stacksize for task 226: unlimited
  | Maximum stacksize for task 227: unlimited
  | Maximum stacksize for task 228: unlimited
  | Maximum stacksize for task 229: unlimited
  | Maximum stacksize for task 230: unlimited
  | Maximum stacksize for task 231: unlimited
  | Maximum stacksize for task 232: unlimited
  | Maximum stacksize for task 233: unlimited
  | Maximum stacksize for task 234: unlimited
  | Maximum stacksize for task 235: unlimited
  | Maximum stacksize for task 236: unlimited
  | Maximum stacksize for task 237: unlimited
  | Maximum stacksize for task 238: unlimited
  | Maximum stacksize for task 239: unlimited
  | Current stacksize for task 0: unlimited
  | Current stacksize for task 1: unlimited
  | Current stacksize for task 2: unlimited
  | Current stacksize for task 3: unlimited
  | Current stacksize for task 4: unlimited
  | Current stacksize for task 5: unlimited
  | Current stacksize for task 6: unlimited
  | Current stacksize for task 7: unlimited
  | Current stacksize for task 8: unlimited
  | Current stacksize for task 9: unlimited
  | Current stacksize for task 10: unlimited
  | Current stacksize for task 11: unlimited
  | Current stacksize for task 12: unlimited
  | Current stacksize for task 13: unlimited
  | Current stacksize for task 14: unlimited
  | Current stacksize for task 15: unlimited
  | Current stacksize for task 16: unlimited
  | Current stacksize for task 17: unlimited
  | Current stacksize for task 18: unlimited
  | Current stacksize for task 19: unlimited
  | Current stacksize for task 20: unlimited
  | Current stacksize for task 21: unlimited
  | Current stacksize for task 22: unlimited
  | Current stacksize for task 23: unlimited
  | Current stacksize for task 24: unlimited
  | Current stacksize for task 25: unlimited
  | Current stacksize for task 26: unlimited
  | Current stacksize for task 27: unlimited
  | Current stacksize for task 28: unlimited
  | Current stacksize for task 29: unlimited
  | Current stacksize for task 30: unlimited
  | Current stacksize for task 31: unlimited
  | Current stacksize for task 32: unlimited
  | Current stacksize for task 33: unlimited
  | Current stacksize for task 34: unlimited
  | Current stacksize for task 35: unlimited
  | Current stacksize for task 36: unlimited
  | Current stacksize for task 37: unlimited
  | Current stacksize for task 38: unlimited
  | Current stacksize for task 39: unlimited
  | Current stacksize for task 40: unlimited
  | Current stacksize for task 41: unlimited
  | Current stacksize for task 42: unlimited
  | Current stacksize for task 43: unlimited
  | Current stacksize for task 44: unlimited
  | Current stacksize for task 45: unlimited
  | Current stacksize for task 46: unlimited
  | Current stacksize for task 47: unlimited
  | Current stacksize for task 48: unlimited
  | Current stacksize for task 49: unlimited
  | Current stacksize for task 50: unlimited
  | Current stacksize for task 51: unlimited
  | Current stacksize for task 52: unlimited
  | Current stacksize for task 53: unlimited
  | Current stacksize for task 54: unlimited
  | Current stacksize for task 55: unlimited
  | Current stacksize for task 56: unlimited
  | Current stacksize for task 57: unlimited
  | Current stacksize for task 58: unlimited
  | Current stacksize for task 59: unlimited
  | Current stacksize for task 60: unlimited
  | Current stacksize for task 61: unlimited
  | Current stacksize for task 62: unlimited
  | Current stacksize for task 63: unlimited
  | Current stacksize for task 64: unlimited
  | Current stacksize for task 65: unlimited
  | Current stacksize for task 66: unlimited
  | Current stacksize for task 67: unlimited
  | Current stacksize for task 68: unlimited
  | Current stacksize for task 69: unlimited
  | Current stacksize for task 70: unlimited
  | Current stacksize for task 71: unlimited
  | Current stacksize for task 72: unlimited
  | Current stacksize for task 73: unlimited
  | Current stacksize for task 74: unlimited
  | Current stacksize for task 75: unlimited
  | Current stacksize for task 76: unlimited
  | Current stacksize for task 77: unlimited
  | Current stacksize for task 78: unlimited
  | Current stacksize for task 79: unlimited
  | Current stacksize for task 80: unlimited
  | Current stacksize for task 81: unlimited
  | Current stacksize for task 82: unlimited
  | Current stacksize for task 83: unlimited
  | Current stacksize for task 84: unlimited
  | Current stacksize for task 85: unlimited
  | Current stacksize for task 86: unlimited
  | Current stacksize for task 87: unlimited
  | Current stacksize for task 88: unlimited
  | Current stacksize for task 89: unlimited
  | Current stacksize for task 90: unlimited
  | Current stacksize for task 91: unlimited
  | Current stacksize for task 92: unlimited
  | Current stacksize for task 93: unlimited
  | Current stacksize for task 94: unlimited
  | Current stacksize for task 95: unlimited
  | Current stacksize for task 96: unlimited
  | Current stacksize for task 97: unlimited
  | Current stacksize for task 98: unlimited
  | Current stacksize for task 99: unlimited
  | Current stacksize for task 100: unlimited
  | Current stacksize for task 101: unlimited
  | Current stacksize for task 102: unlimited
  | Current stacksize for task 103: unlimited
  | Current stacksize for task 104: unlimited
  | Current stacksize for task 105: unlimited
  | Current stacksize for task 106: unlimited
  | Current stacksize for task 107: unlimited
  | Current stacksize for task 108: unlimited
  | Current stacksize for task 109: unlimited
  | Current stacksize for task 110: unlimited
  | Current stacksize for task 111: unlimited
  | Current stacksize for task 112: unlimited
  | Current stacksize for task 113: unlimited
  | Current stacksize for task 114: unlimited
  | Current stacksize for task 115: unlimited
  | Current stacksize for task 116: unlimited
  | Current stacksize for task 117: unlimited
  | Current stacksize for task 118: unlimited
  | Current stacksize for task 119: unlimited
  | Current stacksize for task 120: unlimited
  | Current stacksize for task 121: unlimited
  | Current stacksize for task 122: unlimited
  | Current stacksize for task 123: unlimited
  | Current stacksize for task 124: unlimited
  | Current stacksize for task 125: unlimited
  | Current stacksize for task 126: unlimited
  | Current stacksize for task 127: unlimited
  | Current stacksize for task 128: unlimited
  | Current stacksize for task 129: unlimited
  | Current stacksize for task 130: unlimited
  | Current stacksize for task 131: unlimited
  | Current stacksize for task 132: unlimited
  | Current stacksize for task 133: unlimited
  | Current stacksize for task 134: unlimited
  | Current stacksize for task 135: unlimited
  | Current stacksize for task 136: unlimited
  | Current stacksize for task 137: unlimited
  | Current stacksize for task 138: unlimited
  | Current stacksize for task 139: unlimited
  | Current stacksize for task 140: unlimited
  | Current stacksize for task 141: unlimited
  | Current stacksize for task 142: unlimited
  | Current stacksize for task 143: unlimited
  | Current stacksize for task 144: unlimited
  | Current stacksize for task 145: unlimited
  | Current stacksize for task 146: unlimited
  | Current stacksize for task 147: unlimited
  | Current stacksize for task 148: unlimited
  | Current stacksize for task 149: unlimited
  | Current stacksize for task 150: unlimited
  | Current stacksize for task 151: unlimited
  | Current stacksize for task 152: unlimited
  | Current stacksize for task 153: unlimited
  | Current stacksize for task 154: unlimited
  | Current stacksize for task 155: unlimited
  | Current stacksize for task 156: unlimited
  | Current stacksize for task 157: unlimited
  | Current stacksize for task 158: unlimited
  | Current stacksize for task 159: unlimited
  | Current stacksize for task 160: unlimited
  | Current stacksize for task 161: unlimited
  | Current stacksize for task 162: unlimited
  | Current stacksize for task 163: unlimited
  | Current stacksize for task 164: unlimited
  | Current stacksize for task 165: unlimited
  | Current stacksize for task 166: unlimited
  | Current stacksize for task 167: unlimited
  | Current stacksize for task 168: unlimited
  | Current stacksize for task 169: unlimited
  | Current stacksize for task 170: unlimited
  | Current stacksize for task 171: unlimited
  | Current stacksize for task 172: unlimited
  | Current stacksize for task 173: unlimited
  | Current stacksize for task 174: unlimited
  | Current stacksize for task 175: unlimited
  | Current stacksize for task 176: unlimited
  | Current stacksize for task 177: unlimited
  | Current stacksize for task 178: unlimited
  | Current stacksize for task 179: unlimited
  | Current stacksize for task 180: unlimited
  | Current stacksize for task 181: unlimited
  | Current stacksize for task 182: unlimited
  | Current stacksize for task 183: unlimited
  | Current stacksize for task 184: unlimited
  | Current stacksize for task 185: unlimited
  | Current stacksize for task 186: unlimited
  | Current stacksize for task 187: unlimited
  | Current stacksize for task 188: unlimited
  | Current stacksize for task 189: unlimited
  | Current stacksize for task 190: unlimited
  | Current stacksize for task 191: unlimited
  | Current stacksize for task 192: unlimited
  | Current stacksize for task 193: unlimited
  | Current stacksize for task 194: unlimited
  | Current stacksize for task 195: unlimited
  | Current stacksize for task 196: unlimited
  | Current stacksize for task 197: unlimited
  | Current stacksize for task 198: unlimited
  | Current stacksize for task 199: unlimited
  | Current stacksize for task 200: unlimited
  | Current stacksize for task 201: unlimited
  | Current stacksize for task 202: unlimited
  | Current stacksize for task 203: unlimited
  | Current stacksize for task 204: unlimited
  | Current stacksize for task 205: unlimited
  | Current stacksize for task 206: unlimited
  | Current stacksize for task 207: unlimited
  | Current stacksize for task 208: unlimited
  | Current stacksize for task 209: unlimited
  | Current stacksize for task 210: unlimited
  | Current stacksize for task 211: unlimited
  | Current stacksize for task 212: unlimited
  | Current stacksize for task 213: unlimited
  | Current stacksize for task 214: unlimited
  | Current stacksize for task 215: unlimited
  | Current stacksize for task 216: unlimited
  | Current stacksize for task 217: unlimited
  | Current stacksize for task 218: unlimited
  | Current stacksize for task 219: unlimited
  | Current stacksize for task 220: unlimited
  | Current stacksize for task 221: unlimited
  | Current stacksize for task 222: unlimited
  | Current stacksize for task 223: unlimited
  | Current stacksize for task 224: unlimited
  | Current stacksize for task 225: unlimited
  | Current stacksize for task 226: unlimited
  | Current stacksize for task 227: unlimited
  | Current stacksize for task 228: unlimited
  | Current stacksize for task 229: unlimited
  | Current stacksize for task 230: unlimited
  | Current stacksize for task 231: unlimited
  | Current stacksize for task 232: unlimited
  | Current stacksize for task 233: unlimited
  | Current stacksize for task 234: unlimited
  | Current stacksize for task 235: unlimited
  | Current stacksize for task 236: unlimited
  | Current stacksize for task 237: unlimited
  | Current stacksize for task 238: unlimited
  | Current stacksize for task 239: unlimited
 
[...]
  |    7          0.132525390938382E-02          0.131973703212829E-02          0.137768612026092E-02
  |    8          0.193025965491972E-02          0.193062753720713E-02          0.223292656046614E-02
  |    9         -0.272057915781758E-02          0.365805139553107E-02          0.152356155172658E-03
  |   10          0.368176242558717E-02         -0.270819153547565E-02          0.125420995719939E-03
  |   11         -0.218866960703945E-02         -0.220232690262423E-02          0.555123710506846E-03
  |   12          0.287236564857204E-02          0.286500608884504E-02         -0.331551470155336E-02
  |   13         -0.318837542452972E-02         -0.318564698956771E-02         -0.121868964891869E-02
  |   14          0.769158461002732E-03          0.780316219074568E-03         -0.182277392958369E-02
  |   15         -0.560754653794354E-03         -0.285851574171278E-02         -0.412216267159861E-02
  |   16         -0.286087474530210E-02         -0.557843408154186E-03         -0.411586348918089E-02
  |   17         -0.147648925653436E-02         -0.145391397164477E-02          0.738069060354412E-03
  |   18          0.306564962676756E-02          0.307346489943703E-02          0.213254083791289E-02
  |   19          0.117063534440666E-02          0.117640738193631E-02         -0.298096568406545E-02
  |   20         -0.303804007787393E-02         -0.303646112390262E-02          0.245088919272499E-02
  |   21         -0.266043043838612E-04         -0.243388004806488E-02          0.286596723923182E-02
  |   22         -0.245576273550258E-02         -0.553979383438604E-05          0.289271984487642E-02
  |   23          0.384072495337422E-02          0.383656886551871E-02          0.604003419902997E-02
  |   24         -0.610487583881894E-02         -0.609732249478934E-02         -0.425064813735038E-03
  |   25         -0.752769150482818E-03         -0.754680531075190E-03         -0.650418055341961E-03
  |   26         -0.134297880679503E-02         -0.134433833915624E-02         -0.547049123603072E-02
  |   27         -0.102819631876218E-02          0.276178117373730E-02         -0.316829534691707E-03
  |   28          0.277528346707557E-02         -0.100715848436761E-02         -0.292995071319743E-03
  |   29          0.286735018758199E-02          0.287133170108349E-02          0.252156766815941E-02
  |   30         -0.423156370431138E-03         -0.428816322697687E-03          0.707857131330408E-02
  |   31          0.372115485617159E-02          0.570487790712929E-02         -0.217713817276041E-02
  |   32         -0.203956380033749E-02         -0.285285665905522E-02         -0.210713777333097E-02
  |   33          0.688089420913832E-04          0.391938927512820E-02         -0.854278417679188E-03
  |   34         -0.105091172668268E-02          0.157952698211323E-03          0.353601931127959E-03
  |   35          0.386332818788047E-04         -0.253955807355953E-02          0.794428453617609E-03
  |   36          0.169797954038284E-02         -0.287559462073955E-02         -0.687126296273499E-04
  |   37         -0.710062411325350E-03          0.242098913122516E-02         -0.294643886870026E-02
  |   38         -0.426165965089716E-02         -0.465378626600864E-02          0.396660828565906E-02
  |   39         -0.192385407778982E-02         -0.340460563164077E-02          0.120337213923995E-02
  |   40          0.794494299839691E-03          0.317071162589091E-02         -0.165740160398865E-02
  |   41         -0.261872343839830E-02          0.306564125243499E-02          0.246145070140087E-02
  |   42         -0.124590647294551E-02         -0.612039910023081E-04          0.454697448029286E-03
  |   43          0.115754686398837E-02          0.126583979653923E-02          0.177532835799101E-02
  |   44         -0.175675794385555E-02         -0.237586735834097E-02         -0.118187240363431E-02
  |   45          0.553157067576374E-02         -0.274926631535978E-02          0.361352423063714E-02
  |   46         -0.852057073527246E-03          0.209353201014099E-02         -0.616981169641913E-03
  |   47          0.172590505190180E-02          0.265577846026111E-02          0.766912649253231E-03
  |   48         -0.187104824513292E-02         -0.329556047247295E-02         -0.398432016126258E-02
  |   49         -0.678610348468920E-02         -0.478736463253308E-02          0.202836986191511E-02
  |   50          0.330867173421787E-02          0.738258455584497E-03         -0.192914187397113E-03
  |   51          0.431520658981677E-02         -0.108731173391820E-02          0.901376942058347E-03
  |   52         -0.126627329852867E-02          0.113894263115448E-02         -0.788973757344507E-03
  |   53          0.561519818191034E-02          0.385770148892854E-02         -0.264972601634268E-02
  |   54         -0.415708680149252E-03         -0.115605844815231E-03          0.438795047812825E-03
  |   55         -0.768467279793515E-02         -0.911824043307262E-03          0.173926614395326E-02
  |   56         -0.267643632333868E-03         -0.672722154516479E-02         -0.142747681139409E-02
  |   57         -0.435142323418727E-02          0.133644837303916E-02          0.119136006251390E-02
  |   58          0.175719714021910E-02          0.264108549773595E-02         -0.484155417423130E-03
  |   59          0.630805706749831E-03          0.852962635854077E-04         -0.320727719703155E-02
  |   60         -0.361838669241676E-02         -0.134605535011092E-02          0.102751229086784E-02
  |   61          0.569844270116331E-02          0.369590258775571E-02         -0.217989686243982E-02
  |   62         -0.286161254762396E-02         -0.205898549142940E-02         -0.210803858425273E-02
  |   63          0.167339452609217E-03         -0.105487195994214E-02          0.336722931264414E-03
  |   64          0.392982192580688E-02          0.707453172273061E-04         -0.847125162502347E-03
  |   65         -0.256462964251740E-02          0.104395185036252E-04          0.772886277506476E-03
  |   66         -0.287175588810726E-02          0.172004577331678E-02         -0.712781486962211E-04
  |   67          0.242510408620341E-02         -0.728801183248586E-03         -0.294137176020767E-02
  |   68         -0.465739088614042E-02         -0.427797593428011E-02          0.396792546395033E-02
  |   69          0.315998953195943E-02          0.804904830291216E-03         -0.166492488215594E-02
  |   70         -0.338680612344477E-02         -0.192743953872097E-02          0.122234736975831E-02
  |   71          0.308834719499312E-02         -0.260285191652438E-02          0.246584658332802E-02
  |   72         -0.626724638529040E-04         -0.125237326610868E-02          0.444101489157495E-03
  |   73          0.127315446256815E-02          0.115477407414258E-02          0.178502812285413E-02
  |   74         -0.237761937259778E-02         -0.174193879372999E-02         -0.118220402355927E-02
  |   75          0.210393940051691E-02         -0.851480151967976E-03         -0.605876658342032E-03
  |   76         -0.274623899307772E-02          0.555032485248004E-02          0.360040410052069E-02
  |   77          0.264771380699544E-02          0.173881428508810E-02          0.778639493752697E-03
  |   78         -0.329536323636978E-02         -0.187916147388391E-02         -0.398510825582824E-02
  |   79         -0.480429464757529E-02         -0.678730384742596E-02          0.202006343242498E-02
  |   80          0.738142833861419E-03          0.328956316567020E-02         -0.177444248505394E-03
  |   81          0.114142358706740E-02         -0.125489357028843E-02         -0.803666791227743E-03
  |   82         -0.109173062839135E-02          0.432692168999169E-02          0.898799403597110E-03
  |   83          0.386109647118898E-02          0.562123601175085E-02         -0.265994472342461E-02
  |   84         -0.107355649722192E-03         -0.396613179534722E-03          0.467030358563097E-03
  |   85         -0.931280177738357E-03         -0.770789776785028E-02          0.173939826500724E-02
  |   86         -0.673411432747060E-02         -0.262348483152252E-03         -0.143833630128060E-02
  |   87          0.268248686294014E-02          0.176442714134601E-02         -0.518452563343315E-03
  |   88          0.134455491337403E-02         -0.434232068653660E-02          0.119036078737049E-02
  |   89          0.760680135382357E-04          0.625734587257857E-03         -0.320119104680242E-02
  |   90         -0.134923396078491E-02         -0.361991982352029E-02          0.102191457722622E-02
  |   91         -0.540049405405374E-03         -0.554601193835186E-03         -0.244908993101702E-02
  |   92         -0.127776247927754E-02         -0.128186857672254E-02          0.276606675904755E-03
  |   93          0.364814842157768E-02          0.443470816431156E-02         -0.590834103658597E-03
  |   94          0.442361545826750E-02          0.364419837597160E-02         -0.595377647230531E-03
  |   95          0.333048344753065E-03          0.315153931833632E-03          0.104528371844160E-02
  |   96          0.490823802508633E-03          0.494912593367886E-03          0.846961804722008E-03
  |   97         -0.409505347032805E-02         -0.407672841717953E-02         -0.130505533101255E-02
  |   98          0.143989715597483E-02          0.144766436322575E-02          0.428116441117958E-02
  |   99         -0.333237734074267E-03          0.437349092535983E-03          0.327344619772958E-02
  |  100          0.436598303876537E-03         -0.302869940244325E-03          0.331512523021112E-02
  |  101         -0.107199157967807E-02         -0.108046192712534E-02          0.442587364525782E-02
  |  102          0.104658134034959E-02          0.103923868515663E-02         -0.353377610801865E-03
  |  103          0.244664426713474E-02          0.245240996727520E-02         -0.181653224693945E-02
  |  104          0.405913263927303E-02          0.406144356271692E-02         -0.263103580879047E-02
  |  105          0.102068320040107E-03          0.242781456413554E-02          0.572895696586489E-03
  |  106          0.242300285796919E-02          0.129271325473206E-03          0.573576299717011E-03
  |  107         -0.263198373346258E-02         -0.264680469444471E-02         -0.541670847296141E-03
  |  108          0.262951006470795E-02          0.259935877814057E-02         -0.452150567205850E-02
  |  109          0.427078078553616E-02          0.429177976383607E-02         -0.506846153863351E-02
  |  110          0.167126131489700E-02          0.166219198506227E-02         -0.556939311269383E-02
  |  111         -0.458324344160882E-02          0.688044368274828E-03          0.960297400179169E-03
  |  112          0.688017537556946E-03         -0.459767751395716E-02          0.961502792800057E-03
  |  113         -0.157437749232205E-02         -0.160109194247223E-02         -0.421100395090422E-03
  |  114          0.233825380947295E-02          0.235058085067357E-02         -0.200760213811626E-02
  |  115          0.655905084563487E-03          0.646814314748325E-03          0.251768554440360E-02
  |  116         -0.300341729998860E-02          0.178864113857462E-02         -0.166832955231363E-02
  |  117          0.176394683349098E-02         -0.301584797330237E-02         -0.167017964921650E-02
  |  118         -0.389093790725122E-02         -0.390632338287586E-02          0.325370366492977E-02
  |  119          0.200800250692654E-02          0.200132621028304E-02          0.282806303211337E-02

  ------------------------------------ 
  Start decomposition of the XC Energy 
  ------------------------------------ 
  X and C from original XC functional choice 
  Hartree-Fock Energy :          0.000000000 Ha              0.000000000 eV
  X Energy            :      -2376.741057273 Ha         -64674.414766398 eV
  C Energy            :        -69.378208187 Ha          -1887.877098886 eV
  XC Energy w/o HF    :      -2446.119265460 Ha         -66562.291865284 eV
  Total XC Energy     :      -2446.119265460 Ha         -66562.291865284 eV
  ------------------------------------ 
  LDA X and C from self-consistent density 
  X Energy LDA        :      -2139.401689607 Ha         -58216.081975849 eV
  C Energy LDA        :       -116.962339670 Ha          -3182.707196785 eV
  ------------------------------------ 
  End decomposition of the XC Energy 
  ------------------------------------ 

------------------------------------------------------------

------------------------------------------------------------------------------
  Final output of selected total energy values:

  The following output summarizes some interesting total energy values
  at the end of a run (AFTER all relaxation, molecular dynamics, etc.).

  | Total energy of the DFT / Hartree-Fock s.c.f. calculation      :       -1096144.524038480 eV
  | Final zero-broadening corrected energy (caution - metals only) :       -1096144.587045728 eV
  | For reference only, the value of 1 Hartree used in FHI-aims is :             27.211384500 eV
  | For reference only, the overall average (free atom contribution
  | + realspace contribution) of the electrostatic potential after
  | s.c.f. convergence is                                          :            -17.179225451 eV

  Before relying on these values, please be sure to understand exactly which
  total energy value is referred to by a given number. Different objects may
  all carry the same name 'total energy'. Definitions:

  Total energy of the DFT / Hartree-Fock s.c.f. calculation:
  | Note that this energy does not include ANY quantities calculated after the
  | s.c.f. cycle, in particular not ANY RPA, MP2, etc. many-body perturbation terms.

  Final zero-broadening corrected energy:
  | For metallic systems only, a broadening of the occupation numbers at the Fermi
  | level can be extrapolated back to zero broadening by an electron-gas inspired
  | formula. For all systems that are not real metals, this value can be
  | meaningless and should be avoided.

------------------------------------------------------------------------------
  Methods described in the following list of references were used in this FHI-aims run.
  If you publish the results, please make sure to cite these reference if they apply.
  FHI-aims is an academic code, and for our developers (often, Ph.D. students
  and postdocs), scientific credit in the community is essential.
  Thank you for helping us!

  For any use of FHI-aims, please cite:

    Volker Blum, Ralf Gehrke, Felix Hanke, Paula Havu, Ville Havu,
    Xinguo Ren, Karsten Reuter, and Matthias Scheffler
    'Ab initio molecular simulations with numeric atom-centered orbitals'
    Computer Physics Communications 180, 2175-2196 (2009)
    http://doi.org/10.1016/j.cpc.2009.06.022


  The provided symmetry information was generated with SPGlib:

    Atsushi Togo, Yusuke Seto, Dimitar Pashov
    SPGlib 1.7.3 obtained from http://spglib.sourceforge.net
    Copyright (C) 2008 Atsushi Togo


 DFT+U infrastructure was used in your run
 please cite:

 Matthias Kick, Karsten Reuter and Harald Oberhofer,
 Intricacies Of DFT+U, not only in a Numeric Atom Centered Orbital Framework

 Journal of Chemical Theory and Computation
 https://


  The ELSI infrastructure was used in your run to solve the Kohn-Sham electronic structure.
  Please check out http://elsi-interchange.org to learn more.
  If scalability is important for your project, please acknowledge ELSI by citing:

    V. W-z. Yu, F. Corsetti, A. Garcia, W. P. Huhn, M. Jacquelin, W. Jia,
    B. Lange, L. Lin, J. Lu, W. Mi, A. Seifitokaldani, A. Vazquez-Mayagoitia,
    C. Yang, H. Yang, and V. Blum
    'ELSI: A unified software interface for Kohn-Sham electronic structure solvers'
    Computer Physics Communications 222, 267-285 (2018).
    http://doi.org/10.1016/j.cpc.2017.09.007


  For the real-space grid partitioning and parallelization used in this calculation, please cite:

    Ville Havu, Volker Blum, Paula Havu, and Matthias Scheffler,
    'Efficient O(N) integration for all-electron electronic structure calculation'
    'using numerically tabulated basis functions'
    Journal of Computational Physics 228, 8367-8379 (2009).
    http://doi.org/10.1016/j.jcp.2009.08.008

  Of course, there are many other important community references, e.g., those cited in the
  above references. Our list is limited to references that describe implementations in the
  FHI-aims code. The reason is purely practical (length of this list) - please credit others as well.

 * A warning was issued further up regarding the accuracy of onsite integrals.
   An integral with a negative eigenvalue was among the flagged integrals.
   In most standard situations, this warning is probably harmless.
   If needed, this can be verified by adjusting the radial_multiplier flag.

   One or more s.c.f. cycles took more than 50 s.c.f. iterations.
   It might be worth adjusting your convergence settings. For example,
   metals need a larger broadening and a smaller "charge_mix_param" value than semiconductors.

 * Warning - a code part requested a citation which was not known
 * to subroutine cite_reference in module applicable_citations.f90 .
 * Likely this is a programmer's oversight. Please let us know.

------------------------------------------------------------
          Leaving FHI-aims.
          Date     :  20250609, Time     :  052115.641

          Computational steps:
          | Number of self-consistency cycles          :           73
          | Number of SCF (re)initializations          :            1

          Detailed time accounting                     :  max(cpu_time)    wall_clock(cpu1)
          | Total time                                  :      298.374 s         299.858 s
          | Preparation time                            :        0.547 s           0.545 s
          | Boundary condition initalization            :        0.202 s           0.202 s
          | Grid partitioning                           :        0.518 s           0.519 s
          | Preloading free-atom quantities on grid     :        0.468 s           0.469 s
          | Free-atom superposition energy              :        0.127 s           0.128 s
          | Total time for integrations                 :       70.158 s          70.325 s
          | Total time for solution of K.-S. equations  :       78.326 s          76.331 s
          | Total time for density & force components   :      100.603 s         100.851 s
          | Total time for mixing                       :        1.237 s           0.862 s
          | Total time for Hartree multipole update     :        0.625 s           0.648 s
          | Total time for Hartree multipole sum        :       21.979 s          22.044 s
          | Total time for total energy evaluation      :        0.036 s           0.244 s
          | Total time NSC force correction             :        1.442 s           1.445 s
          | Total time for scaled ZORA corrections      :        0.000 s           0.000 s

          Partial memory accounting:
          | Residual value for overall tracked memory usage across tasks:     0.000000 MB (should be 0.000000 MB)
          | Peak values for overall tracked memory usage:
          |   Minimum:      148.242 MB (on task  15 after allocating temp_ham_ovlp)
          |   Maximum:      148.956 MB (on task   0 after allocating temp_ham_ovlp)
          |   Average:      148.614 MB
          | Largest tracked array allocation:
          |   Minimum:       41.125 MB (overlap_matrix on task   0)
          |   Maximum:       41.125 MB (overlap_matrix on task   0)
          |   Average:       41.125 MB
          Note:  These values currently only include a subset of arrays which are explicitly tracked.
          The "true" memory usage will be greater.

          Have a nice day.
------------------------------------------------------------
