------------------------------------------------------------
          Invoking FHI-aims ...

          When using FHI-aims, please cite the following reference:

            Volker Blum, Ralf Gehrke, Felix Hanke, Paula Havu,
            Ville Havu, Xinguo Ren, Karsten Reuter, and Matthias Scheffler,
            'Ab Initio Molecular Simulations with Numeric Atom-Centered Orbitals',
            Computer Physics Communications 180, 2175-2196 (2009)

          In addition, many other developments in FHI-aims are likely important for
          your particular application. If so, please cite them. A partial list of references
          is written at the end of this file. Thank you for giving credit to the authors
          of these developments.

          For general information about FHI-aims please find us at

            https://fhi-aims.org

          Online tutorials can be found at

            https://fhi-aims-club.gitlab.io/tutorials/tutorials-overview/

          For any questions about FHI-aims, please visit our slack channel at

            https://fhi-aims.slack.com

          and our main development and support site at

            https://aims-git.rz-berlin.mpg.de .

          The latter site, in particular, has a wiki to collect information, as well
          as an issue tracker to log discussions, suggest improvements, and report issues
          or bugs. https://aims-git.rz-berlin.mpg.de is also the main development site
          of the project and all new and updated code versions can be obtained there.
          Please send an email to aims-coordinators@fhi-berlin.mpg.de and we will add
          you to these sites. They are for you and everyone is welcome there.

------------------------------------------------------------



  Date     :  20250608, Time     :  053124.449
  Time zero on CPU 1             :   0.198558000000000E+00  s.
  Internal wall clock time zero  :           518592684.449  s.

  FHI-aims created a unique identifier for this run for later identification
  aims_uuid : D6211B39-2056-4A32-A39F-BA2A04386A82

  Build configuration of the current instance of FHI-aims
  -------------------------------------------------------
  FHI-aims version      : 230905
  Commit number         : 6362ac204
  CMake host system     : Linux-3.10.0-1160.119.1.el7.x86_64
  CMake version         : 3.14.3
  Fortran compiler      : /apps/compilers/intel/2018.2/compilers_and_libraries_2018/linux/mpi/intel64/bin/mpif90 (Intel) version 18.0.2.20180210
  Fortran compiler flags: -O3 -ip -fp-model precise
  C compiler            : /apps/compilers/intel/2018.2/compilers_and_libraries_2018/linux/bin/intel64/icc (Intel) version 18.0.2.20180210
  C compiler flags      : -O3 -ip -fp-model precise
  C++ compiler          : /apps/compilers/intel/2018.2/compilers_and_libraries_2018/linux/bin/intel64/icpc (Intel) version 18.0.2.20180210
  C++ compiler flags    : -O3 -ip -fp-model precise
  HIP compiler          :
  HIP compiler flags    :
  HIP GPU arch          :
  ELPA2 kernel          : AVX2
  Using MPI
  Using ScaLAPACK
  Using LibXC
  Using i-PI
  Using RLSY
  Linking against: /apps/compilers/intel/2018.2/compilers_and_libraries_2018/linux/mkl/lib/intel64/libmkl_intel_lp64.so
                   /apps/compilers/intel/2018.2/compilers_and_libraries_2018/linux/mkl/lib/intel64/libmkl_intel_thread.so
                   /apps/compilers/intel/2018.2/compilers_and_libraries_2018/linux/mkl/lib/intel64/libmkl_core.so
                   /apps/compilers/intel/2018.2/compilers_and_libraries_2018/linux/mkl/lib/intel64/libmkl_blacs_intelmpi_lp64.so
                   /apps/compilers/intel/2018.2/compilers_and_libraries_2018/linux/mkl/lib/intel64/libmkl_scalapack_lp64.so
                   /usr/lib64/libpthread.so

  Using      240 parallel tasks.
  Task        0 on host ccs0101 reporting.
  Task        1 on host ccs0101 reporting.
  Task        2 on host ccs0101 reporting.
  Task        3 on host ccs0101 reporting.
  Task        4 on host ccs0101 reporting.
  Task        5 on host ccs0101 reporting.
  Task        6 on host ccs0101 reporting.
  Task        7 on host ccs0101 reporting.
  Task        8 on host ccs0101 reporting.
  Task        9 on host ccs0101 reporting.
  Task       10 on host ccs0101 reporting.
  Task       11 on host ccs0101 reporting.
  Task       12 on host ccs0101 reporting.
  Task       13 on host ccs0101 reporting.
  Task       14 on host ccs0101 reporting.
  Task       15 on host ccs0101 reporting.
  Task       16 on host ccs0101 reporting.
  Task       17 on host ccs0101 reporting.
  Task       18 on host ccs0101 reporting.
  Task       19 on host ccs0101 reporting.
  Task       20 on host ccs0101 reporting.
  Task       21 on host ccs0101 reporting.
  Task       22 on host ccs0101 reporting.
  Task       23 on host ccs0101 reporting.
  Task       24 on host ccs0101 reporting.
  Task       25 on host ccs0101 reporting.
  Task       26 on host ccs0101 reporting.
  Task       27 on host ccs0101 reporting.
  Task       28 on host ccs0101 reporting.
  Task       29 on host ccs0101 reporting.
  Task       30 on host ccs0101 reporting.
  Task       31 on host ccs0101 reporting.
  Task       32 on host ccs0101 reporting.
  Task       33 on host ccs0101 reporting.
  Task       34 on host ccs0101 reporting.
  Task       35 on host ccs0101 reporting.
  Task       36 on host ccs0101 reporting.
  Task       37 on host ccs0101 reporting.
  Task       38 on host ccs0101 reporting.
  Task       39 on host ccs0101 reporting.
  Task       40 on host ccs0102 reporting.
  Task       41 on host ccs0102 reporting.
  Task       42 on host ccs0102 reporting.
  Task       43 on host ccs0102 reporting.
  Task       44 on host ccs0102 reporting.
  Task       45 on host ccs0102 reporting.
  Task       46 on host ccs0102 reporting.
  Task       47 on host ccs0102 reporting.
  Task       48 on host ccs0102 reporting.
  Task       49 on host ccs0102 reporting.
  Task       50 on host ccs0102 reporting.
  Task       51 on host ccs0102 reporting.
  Task       52 on host ccs0102 reporting.
  Task       53 on host ccs0102 reporting.
  Task       54 on host ccs0102 reporting.
  Task       55 on host ccs0102 reporting.
  Task       56 on host ccs0102 reporting.
  Task       57 on host ccs0102 reporting.
  Task       58 on host ccs0102 reporting.
  Task       59 on host ccs0102 reporting.
  Task       60 on host ccs0102 reporting.
  Task       61 on host ccs0102 reporting.
  Task       62 on host ccs0102 reporting.
  Task       63 on host ccs0102 reporting.
  Task       64 on host ccs0102 reporting.
  Task       65 on host ccs0102 reporting.
  Task       66 on host ccs0102 reporting.
  Task       67 on host ccs0102 reporting.
  Task       68 on host ccs0102 reporting.
  Task       69 on host ccs0102 reporting.
  Task       70 on host ccs0102 reporting.
  Task       71 on host ccs0102 reporting.
  Task       72 on host ccs0102 reporting.
  Task       73 on host ccs0102 reporting.
  Task       74 on host ccs0102 reporting.
  Task       75 on host ccs0102 reporting.
  Task       76 on host ccs0102 reporting.
  Task       77 on host ccs0102 reporting.
  Task       78 on host ccs0102 reporting.
  Task       79 on host ccs0102 reporting.
  Task       80 on host ccs0105 reporting.
  Task       81 on host ccs0105 reporting.
  Task       82 on host ccs0105 reporting.
  Task       83 on host ccs0105 reporting.
  Task       84 on host ccs0105 reporting.
  Task       85 on host ccs0105 reporting.
  Task       86 on host ccs0105 reporting.
  Task       87 on host ccs0105 reporting.
  Task       88 on host ccs0105 reporting.
  Task       89 on host ccs0105 reporting.
  Task       90 on host ccs0105 reporting.
  Task       91 on host ccs0105 reporting.
  Task       92 on host ccs0105 reporting.
  Task       93 on host ccs0105 reporting.
  Task       94 on host ccs0105 reporting.
  Task       95 on host ccs0105 reporting.
  Task       96 on host ccs0105 reporting.
  Task       97 on host ccs0105 reporting.
  Task       98 on host ccs0105 reporting.
  Task       99 on host ccs0105 reporting.
  Task      100 on host ccs0105 reporting.
  Task      101 on host ccs0105 reporting.
  Task      102 on host ccs0105 reporting.
  Task      103 on host ccs0105 reporting.
  Task      104 on host ccs0105 reporting.
  Task      105 on host ccs0105 reporting.
  Task      106 on host ccs0105 reporting.
  Task      107 on host ccs0105 reporting.
  Task      108 on host ccs0105 reporting.
  Task      109 on host ccs0105 reporting.
  Task      110 on host ccs0105 reporting.
  Task      111 on host ccs0105 reporting.
  Task      112 on host ccs0105 reporting.
  Task      113 on host ccs0105 reporting.
  Task      114 on host ccs0105 reporting.
  Task      115 on host ccs0105 reporting.
  Task      116 on host ccs0105 reporting.
  Task      117 on host ccs0105 reporting.
  Task      118 on host ccs0105 reporting.
  Task      119 on host ccs0105 reporting.
  Task      120 on host ccs0106 reporting.
  Task      121 on host ccs0106 reporting.
  Task      122 on host ccs0106 reporting.
  Task      123 on host ccs0106 reporting.
  Task      124 on host ccs0106 reporting.
  Task      125 on host ccs0106 reporting.
  Task      126 on host ccs0106 reporting.
  Task      127 on host ccs0106 reporting.
  Task      128 on host ccs0106 reporting.
  Task      129 on host ccs0106 reporting.
  Task      130 on host ccs0106 reporting.
  Task      131 on host ccs0106 reporting.
  Task      132 on host ccs0106 reporting.
  Task      133 on host ccs0106 reporting.
  Task      134 on host ccs0106 reporting.
  Task      135 on host ccs0106 reporting.
  Task      136 on host ccs0106 reporting.
  Task      137 on host ccs0106 reporting.
  Task      138 on host ccs0106 reporting.
  Task      139 on host ccs0106 reporting.
  Task      140 on host ccs0106 reporting.
  Task      141 on host ccs0106 reporting.
  Task      142 on host ccs0106 reporting.
  Task      143 on host ccs0106 reporting.
  Task      144 on host ccs0106 reporting.
  Task      145 on host ccs0106 reporting.
  Task      146 on host ccs0106 reporting.
  Task      147 on host ccs0106 reporting.
  Task      148 on host ccs0106 reporting.
  Task      149 on host ccs0106 reporting.
  Task      150 on host ccs0106 reporting.
  Task      151 on host ccs0106 reporting.
  Task      152 on host ccs0106 reporting.
  Task      153 on host ccs0106 reporting.
  Task      154 on host ccs0106 reporting.
  Task      155 on host ccs0106 reporting.
  Task      156 on host ccs0106 reporting.
  Task      157 on host ccs0106 reporting.
  Task      158 on host ccs0106 reporting.
  Task      159 on host ccs0106 reporting.
  Task      160 on host ccs0113 reporting.
  Task      161 on host ccs0113 reporting.
  Task      162 on host ccs0113 reporting.
  Task      163 on host ccs0113 reporting.
  Task      164 on host ccs0113 reporting.
  Task      165 on host ccs0113 reporting.
  Task      166 on host ccs0113 reporting.
  Task      167 on host ccs0113 reporting.
  Task      168 on host ccs0113 reporting.
  Task      169 on host ccs0113 reporting.
  Task      170 on host ccs0113 reporting.
  Task      171 on host ccs0113 reporting.
  Task      172 on host ccs0113 reporting.
  Task      173 on host ccs0113 reporting.
  Task      174 on host ccs0113 reporting.
  Task      175 on host ccs0113 reporting.
  Task      176 on host ccs0113 reporting.
  Task      177 on host ccs0113 reporting.
  Task      178 on host ccs0113 reporting.
  Task      179 on host ccs0113 reporting.
  Task      180 on host ccs0113 reporting.
  Task      181 on host ccs0113 reporting.
  Task      182 on host ccs0113 reporting.
  Task      183 on host ccs0113 reporting.
  Task      184 on host ccs0113 reporting.
  Task      185 on host ccs0113 reporting.
  Task      186 on host ccs0113 reporting.
  Task      187 on host ccs0113 reporting.
  Task      188 on host ccs0113 reporting.
  Task      189 on host ccs0113 reporting.
  Task      190 on host ccs0113 reporting.
  Task      191 on host ccs0113 reporting.
  Task      192 on host ccs0113 reporting.
  Task      193 on host ccs0113 reporting.
  Task      194 on host ccs0113 reporting.
  Task      195 on host ccs0113 reporting.
  Task      196 on host ccs0113 reporting.
  Task      197 on host ccs0113 reporting.
  Task      198 on host ccs0113 reporting.
  Task      199 on host ccs0113 reporting.
  Task      200 on host ccs0114 reporting.
  Task      201 on host ccs0114 reporting.
  Task      202 on host ccs0114 reporting.
  Task      203 on host ccs0114 reporting.
  Task      204 on host ccs0114 reporting.
  Task      205 on host ccs0114 reporting.
  Task      206 on host ccs0114 reporting.
  Task      207 on host ccs0114 reporting.
  Task      208 on host ccs0114 reporting.
  Task      209 on host ccs0114 reporting.
  Task      210 on host ccs0114 reporting.
  Task      211 on host ccs0114 reporting.
  Task      212 on host ccs0114 reporting.
  Task      213 on host ccs0114 reporting.
  Task      214 on host ccs0114 reporting.
  Task      215 on host ccs0114 reporting.
  Task      216 on host ccs0114 reporting.
  Task      217 on host ccs0114 reporting.
  Task      218 on host ccs0114 reporting.
  Task      219 on host ccs0114 reporting.
  Task      220 on host ccs0114 reporting.
  Task      221 on host ccs0114 reporting.
  Task      222 on host ccs0114 reporting.
  Task      223 on host ccs0114 reporting.
  Task      224 on host ccs0114 reporting.
  Task      225 on host ccs0114 reporting.
  Task      226 on host ccs0114 reporting.
  Task      227 on host ccs0114 reporting.
  Task      228 on host ccs0114 reporting.
  Task      229 on host ccs0114 reporting.
  Task      230 on host ccs0114 reporting.
  Task      231 on host ccs0114 reporting.
  Task      232 on host ccs0114 reporting.
  Task      233 on host ccs0114 reporting.
  Task      234 on host ccs0114 reporting.
  Task      235 on host ccs0114 reporting.
  Task      236 on host ccs0114 reporting.
  Task      237 on host ccs0114 reporting.
  Task      238 on host ccs0114 reporting.
  Task      239 on host ccs0114 reporting.

  Memory overcommitment is allowed on your operating system.

  Obtaining array dimensions for all initial allocations:
  
  -----------------------------------------------------------------------
  Parsing control.in (first pass over file, find array dimensions only).
  The contents of control.in will be repeated verbatim below
  unless switched off by setting 'verbatim_writeout .false.' .
  in the first line of control.in .
  -----------------------------------------------------------------------
  
  #===============================================================================
  # FHI-aims file: ./control.in
  # Created using the Atomic Simulation Environment (ASE)
  # Sun Jun  8 05:31:23 2025
  #===============================================================================
  compute_forces                     .true.
  xc                                 mbeef
  k_grid                             4 4 3
  relativistic                       atomic_zora scalar
  occupation_type                    gaussian 0.1
  plus_u_petukhov_mixing             1
  plus_u_use_hydros                  True
  plus_u_matrix_control              True
  plus_u_matrix_release              0.001
  n_max_pulay                        20
  charge_mix_param                   0.05
  sc_accuracy_etot                   1e-06
  sc_accuracy_eev                    0.001
  sc_accuracy_rho                    1e-06
  sc_accuracy_forces                 0.0001
  #===============================================================================
  
  ################################################################################
  #
  #  FHI-aims code project
  #  VB, Fritz-Haber Institut, 2009
  #
  #  Suggested "light" defaults for Ce atom (to be pasted into control.in file)
  #  Be sure to double-check any results obtained with these settings for post-processing,
  #  e.g., with the "tight" defaults and larger basis sets.
  #
  ################################################################################
    species          Ce
  #     global species definitions
      nucleus        58
      mass           140.116
  #
      l_hartree      4
  #
      cut_pot        4.0  1.5  1.0
      basis_dep_cutoff    1e-4
  #
      radial_base    66  5.5
      radial_multiplier  1
      angular_grids specified
        division   0.1028  110
        division   0.1495  194
        division   0.8411  302
  #      division   0.9338  434
  #      division   0.9935  590
  #      division   1.0783  770
  #      division   3.5126  974
  #      outer_grid  974
        outer_grid  302
  ################################################################################
  #
  #  Definition of "minimal" basis
  #
  ################################################################################
  #     valence basis states
      valence      6  s   2.
      valence      5  p   6.
      valence      5  d   1.
      valence      4  f   1.
  #     ion occupancy
      ion_occ      6  s   1.
      ion_occ      5  p   6.
      ion_occ      5  d   0.
      ion_occ      4  f   0.
  ################################################################################
  #
  #  Suggested additional basis functions. For production calculations,
  #  uncomment them one after another (the most important basis functions are
  #  listed first).
  #
  #  Constructed for dimers: 2.0, 2.375, 2.875, 3.5, 4.5 AA
  #
  ################################################################################
  #  "First tier" - improvements: -540.10 meV to -12.77 meV
       hydro 4 d 4.8
       hydro 5 g 11.2
       hydro 4 f 7.6
       hydro 2 p 1.8
       hydro 3 s 2.7
  #  "Second tier" - improvements: -48.86 meV to -0.65 meV
  #     hydro 6 h 14.8
  #     hydro 4 f 5.2
  #     hydro 3 d 3
  #     hydro 3 d 2.2
  #     hydro 5 g 11.6
  #     hydro 3 p 2.8
  #     ionic 6 s auto
  #  "Third tier" - max. impr. -2.32 meV, min. impr. -0.31 meV
  #     hydro 6 h 15.2
  #     hydro 4 f 8.2
  #     hydro 5 g 30
  #     hydro 6 d 16.4
  #     hydro 5 f 15.6
  #     hydro 5 p 17.6
  #     hydro 4 s 7.2
  #  Fourth tier  - max. impr. -0.36 meV, min. impr. -0.17 meV
  #     hydro 5 g 20
  #     hydro 4 f 16.4
  #     hydro 6 d 20
  #     hydro 6 p 9.2
  #     hydro 1 s 0.85
  #     hydro 6 h 14
  plus_u 4 f 2.653
  hubbard_coefficient 0.561 -0.6 0 0
  ################################################################################
  #
  #  FHI-aims code project
  #  VB, Fritz-Haber Institut, 2009
  #
  #  Suggested "light" defaults for O atom (to be pasted into control.in file)
  #  Be sure to double-check any results obtained with these settings for post-processing,
  #  e.g., with the "tight" defaults and larger basis sets.
  #
  ################################################################################
    species        O
  #     global species definitions
      nucleus             8
      mass                15.9994
  #
      l_hartree           4
  #
      cut_pot             3.5  1.5  1.0
      basis_dep_cutoff    1e-4
  #
      radial_base         36 5.0
      radial_multiplier   1
       angular_grids specified
        division   0.2659   50
        division   0.4451  110
        division   0.6052  194
        division   0.7543  302
  #      division   0.8014  434
  #      division   0.8507  590
  #      division   0.8762  770
  #      division   0.9023  974
  #      division   1.2339 1202
  #      outer_grid 974
        outer_grid 302
  ################################################################################
  #
  #  Definition of "minimal" basis
  #
  ################################################################################
  #     valence basis states
      valence      2  s   2.
      valence      2  p   4.
  #     ion occupancy
      ion_occ      2  s   1.
      ion_occ      2  p   3.
  ################################################################################
  #
  #  Suggested additional basis functions. For production calculations,
  #  uncomment them one after another (the most important basis functions are
  #  listed first).
  #
  #  Constructed for dimers: 1.0 A, 1.208 A, 1.5 A, 2.0 A, 3.0 A
  #
  ################################################################################
  #  "First tier" - improvements: -699.05 meV to -159.38 meV
       hydro 2 p 1.8
       hydro 3 d 7.6
       hydro 3 s 6.4
  #  "Second tier" - improvements: -49.91 meV to -5.39 meV
  #     hydro 4 f 11.6
  #     hydro 3 p 6.2
  #     hydro 3 d 5.6
  #     hydro 5 g 17.6
  #     hydro 1 s 0.75
  #  "Third tier" - improvements: -2.83 meV to -0.50 meV
  #     ionic 2 p auto
  #     hydro 4 f 10.8
  #     hydro 4 d 4.7
  #     hydro 2 s 6.8
  #  "Fourth tier" - improvements: -0.40 meV to -0.12 meV
  #     hydro 3 p 5
  #     hydro 3 s 3.3
  #     hydro 5 g 15.6
  #     hydro 4 f 17.6
  #     hydro 4 d 14
  # Further basis functions - -0.08 meV and below
  #     hydro 3 s 2.1
  #     hydro 4 d 11.6
  #     hydro 3 p 16
  #     hydro 2 s 17.2
  ################################################################################
  #
  #  FHI-aims code project
  #  VB, Fritz-Haber Institut, 2010
  #
  #  Suggested "light" defaults for Ni atom (to be pasted into control.in file)
  #  Be sure to double-check any results obtained with these settings for post-processing,
  #  e.g., with the "tight" defaults and larger basis sets.
  #
  #  2020/09/15 Added 4 p ionic function from tier 2 to default to improve description of
  #             bulk Ni in "light".
  #
  ################################################################################
    species        Ni
  #     global species definitions
      nucleus             28
      mass                58.6934
  #
      l_hartree           4
  #
      cut_pot             3.5          1.5  1.0
      basis_dep_cutoff    1e-4
  #
      radial_base         52 5.0
      radial_multiplier   1
      angular_grids       specified
        division   0.4449   50
        division   0.8232  110
        division   1.1299  194
        division   1.4513  302
  #      division   1.6613  434
  #      division   1.8317  590
  #      division   1.9829  770
  #      division   2.0231  974
  #      division   2.4367 1202
        outer_grid  302
  ################################################################################
  #
  #  Definition of "minimal" basis
  #
  ################################################################################
  #     valence basis states
      valence      4  s   2.
      valence      3  p   6.
      valence      3  d   8.
  #     ion occupancy
      ion_occ      4  s   1.
      ion_occ      3  p   6.
      ion_occ      3  d   7.
  ################################################################################
  #
  #  Suggested additional basis functions. For production calculations,
  #  uncomment them one after another (the most important basis functions are
  #  listed first).
  #
  #  Constructed for dimers: 1.65 A, 2.00 A, 2.50 A, 3.00 A, 4.00 A
  #
  ################################################################################
  #  "First tier" - improvements: -123.08 meV to -11.61 meV
       hydro 3 p 6
       hydro 4 f 9
  #     hydro 5 g 12.4
       hydro 3 d 5.2
       ionic 4 s auto
  #  "Second tier" - improvements: -6.71 meV to -1.07 meV
       ionic 4 p auto
  #     hydro 4 d 6
  #     hydro 6 h 18
  #     hydro 4 f 9.4
  #     hydro 4 f 16.4
  #     hydro 1 s 0.75
  #  "Third tier" - improvements: -0.57 meV to -0.07 meV
  #     hydro 4 p 18.4
  #     hydro 4 d 8
  #     hydro 5 g 13.2
  #     hydro 5 f 8.4
  #     hydro 6 h 16.8
  #     hydro 4 s 4.4
  #  Further functions: improvements -0.07 meV and below
  #     hydro 5 f 16.8
  #     hydro 4 p 10
  plus_u 3 d 0
  hubbard_coefficient 1 0 0 0
  
  -----------------------------------------------------------------------
  Completed first pass over input file control.in .
  -----------------------------------------------------------------------
  
  
  -----------------------------------------------------------------------
  Parsing geometry.in (first pass over file, find array dimensions only).
  The contents of geometry.in will be repeated verbatim below
  unless switched off by setting 'verbatim_writeout .false.' .
  in the first line of geometry.in .
  -----------------------------------------------------------------------
  
  #=======================================================
  # FHI-aims file: ./geometry.in
  # Created using the Atomic Simulation Environment (ASE)
  # Sun Jun  8 05:31:23 2025
  #=======================================================
  lattice_vector 10.8355999999999995 0.0000000000000000 0.0000000000000000
  lattice_vector 0.0000000000000000 10.8355999999999995 0.0000000000000000
  lattice_vector 0.0000000000000000 0.0000000000000000 16.2533999999999992
  atom_frac -0.0002248978437728 -0.0000000035966078 0.0000000051278540 Ce
  atom_frac 0.0001056043936246 0.2498943407235372 0.1670411036180843 Ce
  atom_frac 0.2500000072084028 0.0000000035283156 0.1664133581055694 Ce
  atom_frac 0.2500000025886996 0.2502249621460679 0.0000000052741580 Ce
  atom_frac 0.1250968780919502 0.1249032056583374 0.2499529736949262 O
  atom_frac 0.1248219912046925 0.3750570932814191 0.0834111924082366 O
  atom_frac 0.3750462447348741 0.1250462468462838 0.0833411120851131 O
  atom_frac 0.3751334018227958 0.3746912515208295 0.2503298771905677 O
  atom_frac 0.3751780144042137 0.3750570854105440 0.0834111915486804 O
  atom_frac 0.3749031316505949 0.1249032031689720 0.2499529704892366 O
  atom_frac 0.1248666102060661 0.3746912468497638 0.2503298776908454 O
  atom_frac 0.1249537568734815 0.1250462485973471 0.0833411126170816 O
  atom_frac 0.0003076145154597 0.0000000090735436 0.3332871224744091 Ce
  atom_frac -0.0020747202070429 0.2520747439820163 0.4999999717903772 Ce
  atom_frac 0.2500000006323091 0.0000000004180900 0.4999999783382738 Ce
  atom_frac 0.2499999968056438 0.2496922043499931 0.3332871369006067 Ce
  atom_frac 0.1247643129319034 0.1252355713981184 0.5835278726480679 O
  atom_frac 0.1236852878811382 0.3751195639097332 0.4168541325184185 O
  atom_frac 0.3752356990186299 0.1252355699720463 0.4164721110417750 O
  atom_frac 0.3763147300246476 0.3751195511021616 0.5831458548303546 O
  atom_frac 0.3763147276496375 0.3751195655330772 0.4168541291947684 O
  atom_frac 0.3752356999460648 0.1252355697272547 0.5835278697344489 O
  atom_frac 0.1236852711420448 0.3751195536938680 0.5831458564409050 O
  atom_frac 0.1247643101466259 0.1252355644473747 0.4164721141738836 O
  atom_frac 0.0003076135162656 0.0000000039945089 0.6667128913717545 Ce
  atom_frac 0.0001056053385499 0.2498943369173579 0.8329588824921128 Ce
  atom_frac 0.2500000026522288 0.0000000001805140 0.8335866447164707 Ce
  atom_frac 0.2500000080904664 0.2496922053696010 0.6667128672732218 Ce
  atom_frac 0.1249537561001570 0.1250462507626281 0.9166588892090788 O
  atom_frac 0.1248666011520684 0.3746912521188718 0.7496701185396049 O
  atom_frac 0.3749031337869166 0.1249032066310607 0.7500470237363381 O
  atom_frac 0.3751780115918467 0.3750570870560350 0.9165888158584733 O
  atom_frac 0.3751334017259890 0.3746912521328017 0.7496701240699983 O
  atom_frac 0.3750462453953516 0.1250462475181918 0.9166588918332365 O
  atom_frac 0.1248219920695749 0.3750570942301897 0.9165888120945229 O
  atom_frac 0.1250968717519092 0.1249032038849256 0.7500470238433671 O
  atom_frac 0.0000955196088585 0.5000000073033837 0.0000000054765339 Ce
  atom_frac 0.0001056037604611 0.7501056554415670 0.1670411279393963 Ce
  atom_frac 0.2499999992393502 0.4999999935643989 0.1673848552418647 Ce
  atom_frac 0.2500000028671654 0.7497750362341102 0.0000000085590648 Ce
  atom_frac 0.1248666113601015 0.6253087555852208 0.2503298789384767 O
  atom_frac 0.1249537563955096 0.8749537570555396 0.0833411179132202 O
  atom_frac 0.3751780121678867 0.6249429086811823 0.0834111978590203 O
  atom_frac 0.3749031315234989 0.8750967959692808 0.2499529745304865 O
  atom_frac 0.3750462442961121 0.8749537549406912 0.0833411159015395 O
  atom_frac 0.3751334024313460 0.6253087475497519 0.2503298802619111 O
  atom_frac 0.1250968745185677 0.8750967971577748 0.2499529776577390 O
  atom_frac 0.1248219903036257 0.6249429098352769 0.0834111959026491 O
  atom_frac -0.0021306970706945 0.4999999597171657 0.3350626588487972 Ce
  atom_frac -0.0020747072055497 0.7479252637031788 0.4999999909120161 Ce
  atom_frac 0.2499999995824941 0.4999999922409224 0.4999999755925971 Ce
  atom_frac 0.2499999967509613 0.7503077877154301 0.3332871220416723 Ce
  atom_frac 0.1236852670059952 0.6248804388714533 0.5831458586572118 O
  atom_frac 0.1247643098893860 0.8747644439762090 0.4164721173034914 O
  atom_frac 0.3763147350909681 0.6248804321645975 0.4168541290973559 O
  atom_frac 0.3752356974828538 0.8747644389068239 0.5835278720911994 O
  atom_frac 0.3752356970561473 0.8747644370918088 0.4164721151709152 O
  atom_frac 0.3763147312629929 0.6248804400355048 0.5831458589226486 O
  atom_frac 0.1247643122327419 0.8747644373299918 0.5835278744310339 O
  atom_frac 0.1236852779407872 0.6248804348156025 0.4168541325546183 O
  atom_frac -0.0021306666543317 0.5000000045365093 0.6649374029009505 Ce
  atom_frac 0.0001056088616558 0.7501056591560457 0.8329588964560747 Ce
  atom_frac 0.2500000127024523 0.4999999844490394 0.8326151594212561 Ce
  atom_frac 0.2500000103528758 0.7503077911419656 0.6667128783623838 Ce
  atom_frac 0.1248219901870954 0.6249429097985660 0.9165888133571350 O
  atom_frac 0.1250968701624492 0.8750968025876297 0.7500470233982320 O
  atom_frac 0.3751334001720320 0.6253087457767633 0.7496701264408122 O
  atom_frac 0.3750462431332893 0.8749537601463959 0.9166588924750534 O
  atom_frac 0.3749031329825436 0.8750967998852189 0.7500470246259930 O
  atom_frac 0.3751780067244684 0.6249429087995937 0.9165888147798116 O
  atom_frac 0.1249537572069799 0.8749537558981471 0.9166588901201702 O
  atom_frac 0.1248666040576596 0.6253087444452438 0.7496701225785194 O
  atom_frac 0.5002248866339832 0.0000000001648550 0.0000000079137250 Ce
  atom_frac 0.4998943736022567 0.2498943443305597 0.1670411092815287 Ce
  atom_frac 0.7499999922346080 0.0000000026134193 0.1673847303278670 Ce
  atom_frac 0.7499999916296217 0.2499045307180393 0.0000000031352792 Ce
  atom_frac 0.6246911827650832 0.1251331338172299 0.2503297527210623 O
  atom_frac 0.6252753029603315 0.3752753628999893 0.0840159019644478 O
  atom_frac 0.8749429359290409 0.1251780774677751 0.0834111402769211 O
  atom_frac 0.8750911892739448 0.3749084588661630 0.2518391721069913 O
  atom_frac 0.8747246950574384 0.3752753685784568 0.0840159023732242 O
  atom_frac 0.8753088110472834 0.1251331378648234 0.2503297552464560 O
  atom_frac 0.6249088022237240 0.3749084609704262 0.2518391729735586 O
  atom_frac 0.6250570551519353 0.1251780748160497 0.0834111414715369 O
  atom_frac 0.4996923873028442 0.0000000019954165 0.3332871138275671 Ce
  atom_frac 0.5020747057064935 0.2520747397181074 0.4999999821357960 Ce
  atom_frac 0.7499999972658929 -0.0000000045307657 0.4999999820181419 Ce
  atom_frac 0.7500000209441169 0.2521306647182183 0.3350625341823752 Ce
  atom_frac 0.6251197213145910 0.1263146497361563 0.5831459508614335 O
  atom_frac 0.6300697876473583 0.3800698072195778 0.4202981576318554 O
  atom_frac 0.8748802816402179 0.1263146297399204 0.4168540385954245 O
  atom_frac 0.8699301819024495 0.3800698363470487 0.5797018155788267 O
  atom_frac 0.8699302749498046 0.3800697458835288 0.4202981165497994 O
  atom_frac 0.8748802773816082 0.1263146550091080 0.5831459537204354 O
  atom_frac 0.6300697954065048 0.3800698152198770 0.5797018342888214 O
  atom_frac 0.6251197193640875 0.1263146378022892 0.4168540358571154 O
  atom_frac 0.4996923884113288 -0.0000000064466609 0.6667128722867293 Ce
  atom_frac 0.4998943896638842 0.2498943365086105 0.8329588812109401 Ce
  atom_frac 0.7499999835469859 0.0000000036082387 0.8326152833900661 Ce
  atom_frac 0.7499999830979529 0.2521306626816822 0.6649374673789108 Ce
  atom_frac 0.6250570564751106 0.1251780754097590 0.9165888634880403 O
  atom_frac 0.6249088039771303 0.3749084550325236 0.7481608213241904 O
  atom_frac 0.8753088147867508 0.1251331387028267 0.7496702419220274 O
  atom_frac 0.8747246969446636 0.3752753691843295 0.9159840992438173 O
  atom_frac 0.8750911996682078 0.3749084584102285 0.7481608142881656 O
  atom_frac 0.8749429355922045 0.1251780784357302 0.9165888628363964 O
  atom_frac 0.6252753034136582 0.3752753634059131 0.9159841027222826 O
  atom_frac 0.6246911857761678 0.1251331378717851 0.7496702403997548 O
  atom_frac 0.4999044730322101 0.4999999849642391 0.0000000020066157 Ce
  atom_frac 0.4998943896068920 0.7501056577170242 0.1670411193563895 Ce
  atom_frac 0.7500000081017818 0.4999999786227260 0.1673383222742890 Ce
  atom_frac 0.7499999868816364 0.7500954616993243 0.0000000015956553 Ce
  atom_frac 0.6249088003657254 0.6250915390363242 0.2518391864737308 O
  atom_frac 0.6250570544432230 0.8748219224582467 0.0834111435437933 O
  atom_frac 0.8747246942170845 0.6247246295022391 0.0840159066494075 O
  atom_frac 0.8753088122587587 0.8748668633369835 0.2503297596163405 O
  atom_frac 0.8749429336452487 0.8748219241604923 0.0834111453833250 O
  atom_frac 0.8750911903682560 0.6250915458199240 0.2518391864785978 O
  atom_frac 0.6246911847832475 0.8748668642591361 0.2503297576258479 O
  atom_frac 0.6252753030272434 0.6247246269143746 0.0840159073621081 O
  atom_frac 0.5021306830882977 0.4999999844350416 0.3350626193473468 Ce
  atom_frac 0.5020747123922895 0.7479252528529946 0.5000000080918040 Ce
  atom_frac 0.7499999893793762 0.5000000442803461 0.5000000312726914 Ni
  atom_frac 0.7500000176065924 0.7478693435250139 0.3350625308501723 Ce
  atom_frac 0.6300697586045795 0.6199302325975405 0.5797018671752198 O
  atom_frac 0.6251197231256593 0.8736853594090147 0.4168540359621549 O
  atom_frac 0.8699302101272229 0.6199302004371198 0.4202981645677494 O
  atom_frac 0.8748802853607262 0.8736853650957649 0.5831459575674887 O
  atom_frac 0.8748802790807322 0.8736853664345926 0.4168540382277707 O
  atom_frac 0.8699301784320534 0.6199301725434496 0.5797018219016914 O
  atom_frac 0.6251197170780403 0.8736853731858740 0.5831459565555336 O
  atom_frac 0.6300698159774569 0.6199301736559752 0.4202981833944287 O
  atom_frac 0.5021306836461406 0.5000000122808772 0.6649373632265372 Ce
  atom_frac 0.4998943854996045 0.7501056581920769 0.8329588987751042 Ce
  atom_frac 0.7499999991717033 0.4999999936599145 0.8326616834769524 Ce
  atom_frac 0.7499999640374604 0.7478693413620352 0.6649374757694841 Ce
  atom_frac 0.6252753049049115 0.6247246289293628 0.9159841024302242 O
  atom_frac 0.6246911901791955 0.8748668676058549 0.7496702450907584 O
  atom_frac 0.8750911993246617 0.6250915410110643 0.7481608193546087 O
  atom_frac 0.8749429348408782 0.8748219271955410 0.9165888634685604 O
  atom_frac 0.8753088123118744 0.8748668666827095 0.7496702456678439 O
  atom_frac 0.8747246986681163 0.6247246307940862 0.9159840994294974 O
  atom_frac 0.6250570546067477 0.8748219307759666 0.9165888656959602 O
  atom_frac 0.6249088037603758 0.6250915447487486 0.7481608271061283 O
  
  -----------------------------------------------------------------------
  Completed first pass over input file geometry.in .
  -----------------------------------------------------------------------
  

  Basic array size parameters:
  | Number of species                 :        3
  | Number of atoms                   :      144
  | Number of lattice vectors         :        3
  | Max. basis fn. angular momentum   :        4
  | Max. atomic/ionic basis occupied n:        6
  | Max. number of basis fn. types    :        3
  | Max. radial fns per species/type  :       14
  | Max. logarithmic grid size        :     1463
  | Max. radial integration grid size :       66
  | Max. angular integration grid size:      302
  | Max. angular grid division number :        8
  | Radial grid for Hartree potential :     1463
  | Number of spin channels           :        1
  | Max. number of (n,l) shells per species with '+U' treatment:        1

------------------------------------------------------------
          Reading file control.in.
------------------------------------------------------------
  Forces will be computed.
 * Warning - a code part requested a citation which was not known
 * please add it to init_citations.f90.
 * Missing reference tag: m-BEEF

  XC: Using the m-BEEF functional.
  Using libxc - Initializing
  Libxc version: 6.1.0


  ** PLEASE ** be careful using LibXC. Whilst most of the LDA, GGA and MGGA functionals,
  and hybrid variations therein, should be stable (though we always recommend testing!),
  there are several fancy functionals with e.g. range-separation, like HSE03/HSE06/LC-PBEh,
  and also MGGA functionals that depend on the laplacian of the density, like BR89,
  that are not fully implemented due to the infrastrucutre for these functionals being incomplete or non-generic.
  If you want to use these functionals please contact the development team and we will work on them with you!

  You have selected libxc functional MGGA_X_MBEEF (249)
    - Description: mBEEF exchange
    - Type: MGGA(Exchange)
    - Reference to Literature:
      [1] J. Wellendorff, K. T. Lundgaard, K. W. Jacobsen, and T. Bligaard.,  J. Chem. Phys. 140, 144107 (2014)

  You have selected libxc functional GGA_C_PBE_SOL (133)
    - Description: Perdew, Burke & Ernzerhof SOL
    - Type: GGA(Correlation)
    - Reference to Literature:
      [1] J. P. Perdew, A. Ruzsinszky, G. I. Csonka, O. A. Vydrov, G. E. Scuseria, L. A. Constantin, X. Zhou, and K. Burke.,  Phys. Rev. Lett. 100, 136406 (2008)

  Switching on meta-ggas
  Found k-point grid:         4         4         3
  Scalar relativistic treatment of kinetic energy: on-site free-atom approximation to ZORA.
  Occupation type: Gaussian broadening, width =   0.100000E+00 eV.
  Fixing petukhov mixing factor to   1.000000000000
  hydrogenic basis funktions also used for DFT+U reference states
  Reading DFT+U occupation matrix, from file
  Reading DFT+U occupation matrix, from file
  DFT+U occupation matrix, is again calculated if total energy is converged within   0.001000000000
  Pulay mixing - number of memorized iterations:   20
  Charge density mixing - mixing parameter:     0.0500
  Convergence accuracy of total energy:  0.1000E-05
  Convergence accuracy of sum of eigenvalues:  0.1000E-02
  Convergence accuracy of self-consistent charge density:  0.1000E-05
  Convergence accuracy of forces:  0.1000E-03
 
  Reading configuration options for species Ce                  .
  | Found nuclear charge :  58.0000
  | Found atomic mass :    140.116000000000      amu
  | Found l_max for Hartree potential  :   4
  | Found cutoff potl. onset [A], width [A], scale factor :    4.00000    1.50000    1.00000
  | Threshold for basis-dependent cutoff potential is   0.100000E-03
  | Found data for basic radial integration grid :    66 points, outermost radius =    5.500 A
  | Found multiplier for basic radial grid :   1
  | Found angular grid specification: user-specified.
  | Specified grid contains     4 separate shells.
  | Check grid settings after all constraints further below.
  | Found free-atom valence shell :  6 s   2.000
  | Found free-atom valence shell :  5 p   6.000
  | Found free-atom valence shell :  5 d   1.000
  | Found free-atom valence shell :  4 f   1.000
  | Found free-ion valence shell :  6 s   1.000
  | Found free-ion valence shell :  5 p   6.000
  | Found free-ion valence shell :  5 d   0.000
  | Found free-ion valence shell :  4 f   0.000
  | Found hydrogenic basis function :  4 d   4.800
  | Found hydrogenic basis function :  5 g  11.200
  | Found hydrogenic basis function :  4 f   7.600
  | Found hydrogenic basis function :  2 p   1.800
  | Found hydrogenic basis function :  3 s   2.700
  | Found request for '+U' treatment for  4 f shell, U =     2.653000 eV.
  | Found coefficents for linear combination of hubbard projectors 
  Species Ce                  : Missing cutoff potential type.
  Defaulting to exp(1/x)/(1-x)^2 type cutoff potential.
  Species Ce: No 'logarithmic' tag. Using default grid for free atom:
  | Default logarithmic grid data [bohr] : 0.1000E-03 0.1000E+03 0.1012E+01
  Species Ce: On-site basis accuracy parameter (for Gram-Schmidt orthonormalisation) not specified.
  Using default value basis_acc =  0.1000000E-03.
  Species Ce                  : Using default innermost maximum threshold i_radial=  2 for radial functions.
  Species Ce                  : Default cutoff onset for free atom density etc. : 0.40000000E+01 AA.
  Species Ce                  : Basic radial grid will be enhanced according to radial_multiplier =   1, to contain    66 grid points.
 
  Reading configuration options for species O                   .
  | Found nuclear charge :   8.0000
  | Found atomic mass :    15.9994000000000      amu
  | Found l_max for Hartree potential  :   4
  | Found cutoff potl. onset [A], width [A], scale factor :    3.50000    1.50000    1.00000
  | Threshold for basis-dependent cutoff potential is   0.100000E-03
  | Found data for basic radial integration grid :    36 points, outermost radius =    5.000 A
  | Found multiplier for basic radial grid :   1
  | Found angular grid specification: user-specified.
  | Specified grid contains     5 separate shells.
  | Check grid settings after all constraints further below.
  | Found free-atom valence shell :  2 s   2.000
  | Found free-atom valence shell :  2 p   4.000
  | Found free-ion valence shell :  2 s   1.000
  | Found free-ion valence shell :  2 p   3.000
  | Found hydrogenic basis function :  2 p   1.800
  | Found hydrogenic basis function :  3 d   7.600
  | Found hydrogenic basis function :  3 s   6.400
  Species O                   : Missing cutoff potential type.
  Defaulting to exp(1/x)/(1-x)^2 type cutoff potential.
  Species O : No 'logarithmic' tag. Using default grid for free atom:
  | Default logarithmic grid data [bohr] : 0.1000E-03 0.1000E+03 0.1012E+01
  Species O : On-site basis accuracy parameter (for Gram-Schmidt orthonormalisation) not specified.
  Using default value basis_acc =  0.1000000E-03.
  Species O                   : Using default innermost maximum threshold i_radial=  2 for radial functions.
  Species O                   : Default cutoff onset for free atom density etc. : 0.35000000E+01 AA.
  Species O                   : Basic radial grid will be enhanced according to radial_multiplier =   1, to contain    36 grid points.
 
  Reading configuration options for species Ni                  .
  | Found nuclear charge :  28.0000
  | Found atomic mass :    58.6934000000000      amu
  | Found l_max for Hartree potential  :   4
  | Found cutoff potl. onset [A], width [A], scale factor :    3.50000    1.50000    1.00000
  | Threshold for basis-dependent cutoff potential is   0.100000E-03
  | Found data for basic radial integration grid :    52 points, outermost radius =    5.000 A
  | Found multiplier for basic radial grid :   1
  | Found angular grid specification: user-specified.
  | Specified grid contains     5 separate shells.
  | Check grid settings after all constraints further below.
  | Found free-atom valence shell :  4 s   2.000
  | Found free-atom valence shell :  3 p   6.000
  | Found free-atom valence shell :  3 d   8.000
  | Found free-ion valence shell :  4 s   1.000
  | Found free-ion valence shell :  3 p   6.000
  | Found free-ion valence shell :  3 d   7.000
  | Found hydrogenic basis function :  3 p   6.000
  | Found hydrogenic basis function :  4 f   9.000
  | Found hydrogenic basis function :  3 d   5.200
  | Found ionic basis function :  4 s , default cutoff radius.
  | Found ionic basis function :  4 p , default cutoff radius.
  | Found request for '+U' treatment for  3 d shell, U =     0.000000 eV.
  | Found coefficents for linear combination of hubbard projectors 
  Species Ni                  : Missing cutoff potential type.
  Defaulting to exp(1/x)/(1-x)^2 type cutoff potential.
  Species Ni: No 'logarithmic' tag. Using default grid for free atom:
  | Default logarithmic grid data [bohr] : 0.1000E-03 0.1000E+03 0.1012E+01
  | Will include ionic basis functions of  2.0-fold positive Ni                   ion.
  Species Ni: On-site basis accuracy parameter (for Gram-Schmidt orthonormalisation) not specified.
  Using default value basis_acc =  0.1000000E-03.
  Species Ni                  : Using default innermost maximum threshold i_radial=  2 for radial functions.
  Species Ni                  : Default cutoff onset for free atom density etc. : 0.35000000E+01 AA.
  Species Ni                  : Basic radial grid will be enhanced according to radial_multiplier =   1, to contain    52 grid points.
 
  Finished reading input file 'control.in'.
 
------------------------------------------------------------


------------------------------------------------------------
          Reading geometry description geometry.in.
------------------------------------------------------------
  | The smallest distance between any two atoms is         2.24846743 AA.
  | The first atom of this pair is atom number                    123 .
  | The second atom of this pair is atom number                   130 .
  | Wigner-Seitz cell of the first atom image           0     0     0 .
  | (The Wigner-Seitz cell of the second atom is 0 0 0  by definition.)

  Symmetry information by spglib:
  | Precision set to  0.1E-04
  | Number of Operations  : 8
  | Space group           : 47
  | International         : Pmmm     5
  | Schoenflies           : D2h^1
  Input structure read successfully.
  The structure contains      144 atoms,  and a total of       3522.000 electrons.

  Input geometry:
  | Unit cell:
  |       10.83560000        0.00000000        0.00000000
  |        0.00000000       10.83560000        0.00000000
  |        0.00000000        0.00000000       16.25340000
  | Atomic structure:
  |       Atom                x [A]            y [A]            z [A]
  |    1: Species Ce           -0.00243690       -0.00000004        0.00000008
  |    2: Species Ce            0.00114429        2.70775512        2.71498587
  |    3: Species Ce            2.70890008        0.00000004        2.70478287
  |    4: Species Ce            2.70890003        2.71133760        0.00000009
  |    5: Species O             1.35549973        1.35340118        4.06258566
  |    6: Species O             1.35252117        4.06396864        1.35571547
  |    7: Species O             4.06385109        1.35495111        1.35457643
  |    8: Species O             4.06479549        4.06000452        4.06871163
  |    9: Species O             4.06527889        4.06396855        1.35571546
  |   10: Species O             4.06230037        1.35340115        4.06258561
  |   11: Species O             1.35300464        4.06000447        4.06871163
  |   12: Species O             1.35394893        1.35495113        1.35457644
  |   13: Species Ce            0.00333319        0.00000010        5.41704892
  |   14: Species Ce           -0.02248084        2.73138110        8.12669954
  |   15: Species Ce            2.70890001        0.00000000        8.12669965
  |   16: Species Ce            2.70889997        2.70556485        5.41704915
  |   17: Species O             1.35189619        1.35700256        9.48431193
  |   18: Species O             1.34020431        4.06464555        6.77529696
  |   19: Species O             4.06590394        1.35700254        6.76908781
  |   20: Species O             4.07759589        4.06464541        9.47810284
  |   21: Species O             4.07759586        4.06464556        6.77529690
  |   22: Species O             4.06590395        1.35700254        9.48431188
  |   23: Species O             1.34020412        4.06464544        9.47810286
  |   24: Species O             1.35189616        1.35700248        6.76908786
  |   25: Species Ce            0.00333318        0.00000004       10.83635131
  |   26: Species Ce            0.00114430        2.70775508       13.53841390
  |   27: Species Ce            2.70890003        0.00000000       13.54861717
  |   28: Species Ce            2.70890009        2.70556486       10.83635092
  |   29: Species O             1.35394892        1.35495115       14.89882359
  |   30: Species O             1.35300454        4.06000453       12.18468830
  |   31: Species O             4.06230040        1.35340119       12.19081430
  |   32: Species O             4.06527886        4.06396857       14.89768466
  |   33: Species O             4.06479549        4.06000453       12.18468839
  |   34: Species O             4.06385110        1.35495112       14.89882363
  |   35: Species O             1.35252118        4.06396865       14.89768460
  |   36: Species O             1.35549966        1.35340116       12.19081430
  |   37: Species Ce            0.00103501        5.41780008        0.00000009
  |   38: Species Ce            0.00114428        8.12784484        2.71498627
  |   39: Species Ce            2.70889999        5.41779993        2.72057301
  |   40: Species Ce            2.70890003        8.12426238        0.00000014
  |   41: Species O             1.35300465        6.77559555        4.06871165
  |   42: Species O             1.35394892        9.48064893        1.35457653
  |   43: Species O             4.06527887        6.77163138        1.35571556
  |   44: Species O             4.06230037        9.48219884        4.06258568
  |   45: Species O             4.06385108        9.48064891        1.35457649
  |   46: Species O             4.06479550        6.77559546        4.06871168
  |   47: Species O             1.35549969        9.48219886        4.06258573
  |   48: Species O             1.35252116        6.77163139        1.35571553
  |   49: Species Ce           -0.02308738        5.41779956        5.44590742
  |   50: Species Ce           -0.02248070        8.10421899        8.12669985
  |   51: Species Ce            2.70890000        5.41779992        8.12669960
  |   52: Species Ce            2.70889996        8.13003506        5.41704891
  |   53: Species O             1.34020408        6.77095448        9.47810290
  |   54: Species O             1.35189616        9.47859761        6.76908791
  |   55: Species O             4.07759594        6.77095441        6.77529690
  |   56: Species O             4.06590392        9.47859755        9.48431192
  |   57: Species O             4.06590392        9.47859753        6.76908788
  |   58: Species O             4.07759590        6.77095450        9.47810290
  |   59: Species O             1.35189618        9.47859754        9.48431195
  |   60: Species O             1.34020420        6.77095444        6.77529696
  |   61: Species Ce           -0.02308705        5.41780005       10.80749358
  |   62: Species Ce            0.00114434        8.12784488       13.53841413
  |   63: Species Ce            2.70890014        5.41779983       13.53282723
  |   64: Species Ce            2.70890011        8.13003510       10.83635110
  |   65: Species O             1.35252116        6.77163139       14.89768462
  |   66: Species O             1.35549965        9.48219891       12.19081429
  |   67: Species O             4.06479547        6.77559545       12.18468843
  |   68: Species O             4.06385107        9.48064896       14.89882364
  |   69: Species O             4.06230039        9.48219888       12.19081431
  |   70: Species O             4.06527881        6.77163138       14.89768464
  |   71: Species O             1.35394893        9.48064892       14.89882360
  |   72: Species O             1.35300457        6.77559543       12.18468837
  |   73: Species Ce            5.42023678        0.00000000        0.00000013
  |   74: Species Ce            5.41665547        2.70775516        2.71498597
  |   75: Species Ce            8.12669992        0.00000003        2.72057098
  |   76: Species Ce            8.12669991        2.70786553        0.00000005
  |   77: Species O             6.76890378        1.35589258        4.06870960
  |   78: Species O             6.77523307        4.06633372        1.36554406
  |   79: Species O             9.48053168        1.35637958        1.35571463
  |   80: Species O             9.48213809        4.06235810        4.09324280
  |   81: Species O             9.47816691        4.06633378        1.36554407
  |   82: Species O             9.48449615        1.35589263        4.06870964
  |   83: Species O             6.77126182        4.06235812        4.09324281
  |   84: Species O             6.77286823        1.35637955        1.35571465
  |   85: Species Ce            5.41446683        0.00000002        5.41704878
  |   86: Species Ce            5.44028068        2.73138105        8.12669971
  |   87: Species Ce            8.12669997       -0.00000005        8.12669971
  |   88: Species Ce            8.12670023        2.73198703        5.44590539
  |   89: Species O             6.77354725        1.36869502        9.47810440
  |   90: Species O             6.82718419        4.11828440        6.83127408
  |   91: Species O             9.47985278        1.36869480        6.77529543
  |   92: Species O             9.42621548        4.11828472        9.42212549
  |   93: Species O             9.42621649        4.11828374        6.83127341
  |   94: Species O             9.47985273        1.36869508        9.47810444
  |   95: Species O             6.82718428        4.11828449        9.42212579
  |   96: Species O             6.77354723        1.36869489        6.77529539
  |   97: Species Ce            5.41446684       -0.00000007       10.83635100
  |   98: Species Ce            5.41665565        2.70775507       13.53841388
  |   99: Species Ce            8.12669982        0.00000004       13.53282925
  |  100: Species Ce            8.12669982        2.73198701       10.80749463
  |  101: Species O             6.77286824        1.35637955       14.89768543
  |  102: Species O             6.77126184        4.06235806       12.16015709
  |  103: Species O             9.48449619        1.35589264       12.18469031
  |  104: Species O             9.47816693        4.06633379       14.88785596
  |  105: Species O             9.48213820        4.06235809       12.16015698
  |  106: Species O             9.48053167        1.35637959       14.89768542
  |  107: Species O             6.77523308        4.06633373       14.88785602
  |  108: Species O             6.76890381        1.35589263       12.18469029
  |  109: Species Ce            5.41676491        5.41779984        0.00000003
  |  110: Species Ce            5.41665565        8.12784486        2.71498613
  |  111: Species Ce            8.12670009        5.41779977        2.71981669
  |  112: Species Ce            8.12669986        8.12773438        0.00000003
  |  113: Species O             6.77126180        6.77324188        4.09324303
  |  114: Species O             6.77286822        9.47922042        1.35571468
  |  115: Species O             9.47816690        6.76926620        1.36554414
  |  116: Species O             9.48449617        9.47970738        4.06870971
  |  117: Species O             9.48053165        9.47922044        1.35571471
  |  118: Species O             9.48213810        6.77324195        4.09324303
  |  119: Species O             6.76890380        9.47970739        4.06870968
  |  120: Species O             6.77523307        6.76926617        1.36554415
  |  121: Species Ce            5.44088723        5.41779983        5.44590678
  |  122: Species Ce            5.44028075        8.10421887        8.12670013
  |  123: Species Ni            8.12669988        5.41780048        8.12670051
  |  124: Species Ce            8.12670019        8.10361306        5.44590534
  |  125: Species O             6.82718388        6.71731603        9.42212633
  |  126: Species O             6.77354727        9.46690508        6.77529539
  |  127: Species O             9.42621578        6.71731568        6.83127419
  |  128: Species O             9.47985282        9.46690514        9.47810451
  |  129: Species O             9.47985275        9.46690516        6.77529542
  |  130: Species O             9.42621544        6.71731538        9.42212559
  |  131: Species O             6.77354721        9.46690523        9.47810449
  |  132: Species O             6.82718450        6.71731539        6.83127449
  |  133: Species Ce            5.44088724        5.41780013       10.80749294
  |  134: Species Ce            5.41665560        8.12784487       13.53841417
  |  135: Species Ce            8.12669999        5.41779993       13.53358341
  |  136: Species Ce            8.12669961        8.10361304       10.80749477
  |  137: Species O             6.77523309        6.76926619       14.88785601
  |  138: Species O             6.76890386        9.47970743       12.18469036
  |  139: Species O             9.48213820        6.77324190       12.16015706
  |  140: Species O             9.48053166        9.47922047       14.89768543
  |  141: Species O             9.48449617        9.47970742       12.18469037
  |  142: Species O             9.47816694        6.76926621       14.88785596
  |  143: Species O             6.77286822        9.47922051       14.89768547
  |  144: Species O             6.77126183        6.77324194       12.16015719

  Lattice parameters for 3D lattice (in Angstroms) :    10.835600   10.835600   16.253400
  Angle(s) between unit vectors (in degrees)       :    90.000000   90.000000   90.000000


  Quantities derived from the lattice vectors (in Angstrom^-1):
  | Reciprocal lattice vector 1:  0.579865  0.000000  0.000000
  | Reciprocal lattice vector 2:  0.000000  0.579865  0.000000
  | Reciprocal lattice vector 3:  0.000000  0.000000  0.386577
  | Unit cell volume                               :   0.190832E+04  Angstrom^3

  Fractional coordinates:
                         L1                L2                L3
       atom_frac        -0.00022490       -0.00000000        0.00000001  Ce
       atom_frac         0.00010560        0.24989434        0.16704110  Ce
       atom_frac         0.25000001        0.00000000        0.16641336  Ce
       atom_frac         0.25000000        0.25022496        0.00000001  Ce
       atom_frac         0.12509688        0.12490321        0.24995297  O
       atom_frac         0.12482199        0.37505709        0.08341119  O
       atom_frac         0.37504624        0.12504625        0.08334111  O
       atom_frac         0.37513340        0.37469125        0.25032988  O
       atom_frac         0.37517801        0.37505709        0.08341119  O
       atom_frac         0.37490313        0.12490320        0.24995297  O
       atom_frac         0.12486661        0.37469125        0.25032988  O
       atom_frac         0.12495376        0.12504625        0.08334111  O
       atom_frac         0.00030761        0.00000001        0.33328712  Ce
       atom_frac        -0.00207472        0.25207474        0.49999997  Ce
       atom_frac         0.25000000        0.00000000        0.49999998  Ce
       atom_frac         0.25000000        0.24969220        0.33328714  Ce
       atom_frac         0.12476431        0.12523557        0.58352787  O
       atom_frac         0.12368529        0.37511956        0.41685413  O
       atom_frac         0.37523570        0.12523557        0.41647211  O
       atom_frac         0.37631473        0.37511955        0.58314585  O
       atom_frac         0.37631473        0.37511957        0.41685413  O
       atom_frac         0.37523570        0.12523557        0.58352787  O
       atom_frac         0.12368527        0.37511955        0.58314586  O
       atom_frac         0.12476431        0.12523556        0.41647211  O
       atom_frac         0.00030761        0.00000000        0.66671289  Ce
       atom_frac         0.00010561        0.24989434        0.83295888  Ce
       atom_frac         0.25000000        0.00000000        0.83358664  Ce
       atom_frac         0.25000001        0.24969221        0.66671287  Ce
       atom_frac         0.12495376        0.12504625        0.91665889  O
       atom_frac         0.12486660        0.37469125        0.74967012  O
       atom_frac         0.37490313        0.12490321        0.75004702  O
       atom_frac         0.37517801        0.37505709        0.91658882  O
       atom_frac         0.37513340        0.37469125        0.74967012  O
       atom_frac         0.37504625        0.12504625        0.91665889  O
       atom_frac         0.12482199        0.37505709        0.91658881  O
       atom_frac         0.12509687        0.12490320        0.75004702  O
       atom_frac         0.00009552        0.50000001        0.00000001  Ce
       atom_frac         0.00010560        0.75010566        0.16704113  Ce
       atom_frac         0.25000000        0.49999999        0.16738486  Ce
       atom_frac         0.25000000        0.74977504        0.00000001  Ce
       atom_frac         0.12486661        0.62530876        0.25032988  O
       atom_frac         0.12495376        0.87495376        0.08334112  O
       atom_frac         0.37517801        0.62494291        0.08341120  O
       atom_frac         0.37490313        0.87509680        0.24995297  O
       atom_frac         0.37504624        0.87495375        0.08334112  O
       atom_frac         0.37513340        0.62530875        0.25032988  O
       atom_frac         0.12509687        0.87509680        0.24995298  O
       atom_frac         0.12482199        0.62494291        0.08341120  O
       atom_frac        -0.00213070        0.49999996        0.33506266  Ce
       atom_frac        -0.00207471        0.74792526        0.49999999  Ce
       atom_frac         0.25000000        0.49999999        0.49999998  Ce
       atom_frac         0.25000000        0.75030779        0.33328712  Ce
       atom_frac         0.12368527        0.62488044        0.58314586  O
       atom_frac         0.12476431        0.87476444        0.41647212  O
       atom_frac         0.37631474        0.62488043        0.41685413  O
       atom_frac         0.37523570        0.87476444        0.58352787  O
       atom_frac         0.37523570        0.87476444        0.41647212  O
       atom_frac         0.37631473        0.62488044        0.58314586  O
       atom_frac         0.12476431        0.87476444        0.58352787  O
       atom_frac         0.12368528        0.62488043        0.41685413  O
       atom_frac        -0.00213067        0.50000000        0.66493740  Ce
       atom_frac         0.00010561        0.75010566        0.83295890  Ce
       atom_frac         0.25000001        0.49999998        0.83261516  Ce
       atom_frac         0.25000001        0.75030779        0.66671288  Ce
       atom_frac         0.12482199        0.62494291        0.91658881  O
       atom_frac         0.12509687        0.87509680        0.75004702  O
       atom_frac         0.37513340        0.62530875        0.74967013  O
       atom_frac         0.37504624        0.87495376        0.91665889  O
       atom_frac         0.37490313        0.87509680        0.75004702  O
       atom_frac         0.37517801        0.62494291        0.91658881  O
       atom_frac         0.12495376        0.87495376        0.91665889  O
       atom_frac         0.12486660        0.62530874        0.74967012  O
       atom_frac         0.50022489        0.00000000        0.00000001  Ce
       atom_frac         0.49989437        0.24989434        0.16704111  Ce
       atom_frac         0.74999999        0.00000000        0.16738473  Ce
       atom_frac         0.74999999        0.24990453        0.00000000  Ce
       atom_frac         0.62469118        0.12513313        0.25032975  O
       atom_frac         0.62527530        0.37527536        0.08401590  O
       atom_frac         0.87494294        0.12517808        0.08341114  O
       atom_frac         0.87509119        0.37490846        0.25183917  O
       atom_frac         0.87472470        0.37527537        0.08401590  O
       atom_frac         0.87530881        0.12513314        0.25032976  O
       atom_frac         0.62490880        0.37490846        0.25183917  O
       atom_frac         0.62505706        0.12517807        0.08341114  O
       atom_frac         0.49969239        0.00000000        0.33328711  Ce
       atom_frac         0.50207471        0.25207474        0.49999998  Ce
       atom_frac         0.75000000       -0.00000000        0.49999998  Ce
       atom_frac         0.75000002        0.25213066        0.33506253  Ce
       atom_frac         0.62511972        0.12631465        0.58314595  O
       atom_frac         0.63006979        0.38006981        0.42029816  O
       atom_frac         0.87488028        0.12631463        0.41685404  O
       atom_frac         0.86993018        0.38006984        0.57970182  O
       atom_frac         0.86993027        0.38006975        0.42029812  O
       atom_frac         0.87488028        0.12631466        0.58314595  O
       atom_frac         0.63006980        0.38006982        0.57970183  O
       atom_frac         0.62511972        0.12631464        0.41685404  O
       atom_frac         0.49969239       -0.00000001        0.66671287  Ce
       atom_frac         0.49989439        0.24989434        0.83295888  Ce
       atom_frac         0.74999998        0.00000000        0.83261528  Ce
       atom_frac         0.74999998        0.25213066        0.66493747  Ce
       atom_frac         0.62505706        0.12517808        0.91658886  O
       atom_frac         0.62490880        0.37490846        0.74816082  O
       atom_frac         0.87530881        0.12513314        0.74967024  O
       atom_frac         0.87472470        0.37527537        0.91598410  O
       atom_frac         0.87509120        0.37490846        0.74816081  O
       atom_frac         0.87494294        0.12517808        0.91658886  O
       atom_frac         0.62527530        0.37527536        0.91598410  O
       atom_frac         0.62469119        0.12513314        0.74967024  O
       atom_frac         0.49990447        0.49999998        0.00000000  Ce
       atom_frac         0.49989439        0.75010566        0.16704112  Ce
       atom_frac         0.75000001        0.49999998        0.16733832  Ce
       atom_frac         0.74999999        0.75009546        0.00000000  Ce
       atom_frac         0.62490880        0.62509154        0.25183919  O
       atom_frac         0.62505705        0.87482192        0.08341114  O
       atom_frac         0.87472469        0.62472463        0.08401591  O
       atom_frac         0.87530881        0.87486686        0.25032976  O
       atom_frac         0.87494293        0.87482192        0.08341115  O
       atom_frac         0.87509119        0.62509155        0.25183919  O
       atom_frac         0.62469118        0.87486686        0.25032976  O
       atom_frac         0.62527530        0.62472463        0.08401591  O
       atom_frac         0.50213068        0.49999998        0.33506262  Ce
       atom_frac         0.50207471        0.74792525        0.50000001  Ce
       atom_frac         0.74999999        0.50000004        0.50000003  Ni
       atom_frac         0.75000002        0.74786934        0.33506253  Ce
       atom_frac         0.63006976        0.61993023        0.57970187  O
       atom_frac         0.62511972        0.87368536        0.41685404  O
       atom_frac         0.86993021        0.61993020        0.42029816  O
       atom_frac         0.87488029        0.87368537        0.58314596  O
       atom_frac         0.87488028        0.87368537        0.41685404  O
       atom_frac         0.86993018        0.61993017        0.57970182  O
       atom_frac         0.62511972        0.87368537        0.58314596  O
       atom_frac         0.63006982        0.61993017        0.42029818  O
       atom_frac         0.50213068        0.50000001        0.66493736  Ce
       atom_frac         0.49989439        0.75010566        0.83295890  Ce
       atom_frac         0.75000000        0.49999999        0.83266168  Ce
       atom_frac         0.74999996        0.74786934        0.66493748  Ce
       atom_frac         0.62527530        0.62472463        0.91598410  O
       atom_frac         0.62469119        0.87486687        0.74967025  O
       atom_frac         0.87509120        0.62509154        0.74816082  O
       atom_frac         0.87494293        0.87482193        0.91658886  O
       atom_frac         0.87530881        0.87486687        0.74967025  O
       atom_frac         0.87472470        0.62472463        0.91598410  O
       atom_frac         0.62505705        0.87482193        0.91658887  O
       atom_frac         0.62490880        0.62509154        0.74816083  O

  Slab Identifier: This seems to be a bulk system.
 
  Finished reading input file 'geometry.in'.
 

 
  Consistency checks for stacksize environment parameter are next.
 
  | Maximum stacksize for task 0: unlimited
  | Maximum stacksize for task 1: unlimited
  | Maximum stacksize for task 2: unlimited
  | Maximum stacksize for task 3: unlimited
  | Maximum stacksize for task 4: unlimited
  | Maximum stacksize for task 5: unlimited
  | Maximum stacksize for task 6: unlimited
  | Maximum stacksize for task 7: unlimited
  | Maximum stacksize for task 8: unlimited
  | Maximum stacksize for task 9: unlimited
  | Maximum stacksize for task 10: unlimited
  | Maximum stacksize for task 11: unlimited
  | Maximum stacksize for task 12: unlimited
  | Maximum stacksize for task 13: unlimited
  | Maximum stacksize for task 14: unlimited
  | Maximum stacksize for task 15: unlimited
  | Maximum stacksize for task 16: unlimited
  | Maximum stacksize for task 17: unlimited
  | Maximum stacksize for task 18: unlimited
  | Maximum stacksize for task 19: unlimited
  | Maximum stacksize for task 20: unlimited
  | Maximum stacksize for task 21: unlimited
  | Maximum stacksize for task 22: unlimited
  | Maximum stacksize for task 23: unlimited
  | Maximum stacksize for task 24: unlimited
  | Maximum stacksize for task 25: unlimited
  | Maximum stacksize for task 26: unlimited
  | Maximum stacksize for task 27: unlimited
  | Maximum stacksize for task 28: unlimited
  | Maximum stacksize for task 29: unlimited
  | Maximum stacksize for task 30: unlimited
  | Maximum stacksize for task 31: unlimited
  | Maximum stacksize for task 32: unlimited
  | Maximum stacksize for task 33: unlimited
  | Maximum stacksize for task 34: unlimited
  | Maximum stacksize for task 35: unlimited
  | Maximum stacksize for task 36: unlimited
  | Maximum stacksize for task 37: unlimited
  | Maximum stacksize for task 38: unlimited
  | Maximum stacksize for task 39: unlimited
  | Maximum stacksize for task 40: unlimited
  | Maximum stacksize for task 41: unlimited
  | Maximum stacksize for task 42: unlimited
  | Maximum stacksize for task 43: unlimited
  | Maximum stacksize for task 44: unlimited
  | Maximum stacksize for task 45: unlimited
  | Maximum stacksize for task 46: unlimited
  | Maximum stacksize for task 47: unlimited
  | Maximum stacksize for task 48: unlimited
  | Maximum stacksize for task 49: unlimited
  | Maximum stacksize for task 50: unlimited
  | Maximum stacksize for task 51: unlimited
  | Maximum stacksize for task 52: unlimited
  | Maximum stacksize for task 53: unlimited
  | Maximum stacksize for task 54: unlimited
  | Maximum stacksize for task 55: unlimited
  | Maximum stacksize for task 56: unlimited
  | Maximum stacksize for task 57: unlimited
  | Maximum stacksize for task 58: unlimited
  | Maximum stacksize for task 59: unlimited
  | Maximum stacksize for task 60: unlimited
  | Maximum stacksize for task 61: unlimited
  | Maximum stacksize for task 62: unlimited
  | Maximum stacksize for task 63: unlimited
  | Maximum stacksize for task 64: unlimited
  | Maximum stacksize for task 65: unlimited
  | Maximum stacksize for task 66: unlimited
  | Maximum stacksize for task 67: unlimited
  | Maximum stacksize for task 68: unlimited
  | Maximum stacksize for task 69: unlimited
  | Maximum stacksize for task 70: unlimited
  | Maximum stacksize for task 71: unlimited
  | Maximum stacksize for task 72: unlimited
  | Maximum stacksize for task 73: unlimited
  | Maximum stacksize for task 74: unlimited
  | Maximum stacksize for task 75: unlimited
  | Maximum stacksize for task 76: unlimited
  | Maximum stacksize for task 77: unlimited
  | Maximum stacksize for task 78: unlimited
  | Maximum stacksize for task 79: unlimited
  | Maximum stacksize for task 80: unlimited
  | Maximum stacksize for task 81: unlimited
  | Maximum stacksize for task 82: unlimited
  | Maximum stacksize for task 83: unlimited
  | Maximum stacksize for task 84: unlimited
  | Maximum stacksize for task 85: unlimited
  | Maximum stacksize for task 86: unlimited
  | Maximum stacksize for task 87: unlimited
  | Maximum stacksize for task 88: unlimited
  | Maximum stacksize for task 89: unlimited
  | Maximum stacksize for task 90: unlimited
  | Maximum stacksize for task 91: unlimited
  | Maximum stacksize for task 92: unlimited
  | Maximum stacksize for task 93: unlimited
  | Maximum stacksize for task 94: unlimited
  | Maximum stacksize for task 95: unlimited
  | Maximum stacksize for task 96: unlimited
  | Maximum stacksize for task 97: unlimited
  | Maximum stacksize for task 98: unlimited
  | Maximum stacksize for task 99: unlimited
  | Maximum stacksize for task 100: unlimited
  | Maximum stacksize for task 101: unlimited
  | Maximum stacksize for task 102: unlimited
  | Maximum stacksize for task 103: unlimited
  | Maximum stacksize for task 104: unlimited
  | Maximum stacksize for task 105: unlimited
  | Maximum stacksize for task 106: unlimited
  | Maximum stacksize for task 107: unlimited
  | Maximum stacksize for task 108: unlimited
  | Maximum stacksize for task 109: unlimited
  | Maximum stacksize for task 110: unlimited
  | Maximum stacksize for task 111: unlimited
  | Maximum stacksize for task 112: unlimited
  | Maximum stacksize for task 113: unlimited
  | Maximum stacksize for task 114: unlimited
  | Maximum stacksize for task 115: unlimited
  | Maximum stacksize for task 116: unlimited
  | Maximum stacksize for task 117: unlimited
  | Maximum stacksize for task 118: unlimited
  | Maximum stacksize for task 119: unlimited
  | Maximum stacksize for task 120: unlimited
  | Maximum stacksize for task 121: unlimited
  | Maximum stacksize for task 122: unlimited
  | Maximum stacksize for task 123: unlimited
  | Maximum stacksize for task 124: unlimited
  | Maximum stacksize for task 125: unlimited
  | Maximum stacksize for task 126: unlimited
  | Maximum stacksize for task 127: unlimited
  | Maximum stacksize for task 128: unlimited
  | Maximum stacksize for task 129: unlimited
  | Maximum stacksize for task 130: unlimited
  | Maximum stacksize for task 131: unlimited
  | Maximum stacksize for task 132: unlimited
  | Maximum stacksize for task 133: unlimited
  | Maximum stacksize for task 134: unlimited
  | Maximum stacksize for task 135: unlimited
  | Maximum stacksize for task 136: unlimited
  | Maximum stacksize for task 137: unlimited
  | Maximum stacksize for task 138: unlimited
  | Maximum stacksize for task 139: unlimited
  | Maximum stacksize for task 140: unlimited
  | Maximum stacksize for task 141: unlimited
  | Maximum stacksize for task 142: unlimited
  | Maximum stacksize for task 143: unlimited
  | Maximum stacksize for task 144: unlimited
  | Maximum stacksize for task 145: unlimited
  | Maximum stacksize for task 146: unlimited
  | Maximum stacksize for task 147: unlimited
  | Maximum stacksize for task 148: unlimited
  | Maximum stacksize for task 149: unlimited
  | Maximum stacksize for task 150: unlimited
  | Maximum stacksize for task 151: unlimited
  | Maximum stacksize for task 152: unlimited
  | Maximum stacksize for task 153: unlimited
  | Maximum stacksize for task 154: unlimited
  | Maximum stacksize for task 155: unlimited
  | Maximum stacksize for task 156: unlimited
  | Maximum stacksize for task 157: unlimited
  | Maximum stacksize for task 158: unlimited
  | Maximum stacksize for task 159: unlimited
  | Maximum stacksize for task 160: unlimited
  | Maximum stacksize for task 161: unlimited
  | Maximum stacksize for task 162: unlimited
  | Maximum stacksize for task 163: unlimited
  | Maximum stacksize for task 164: unlimited
  | Maximum stacksize for task 165: unlimited
  | Maximum stacksize for task 166: unlimited
  | Maximum stacksize for task 167: unlimited
  | Maximum stacksize for task 168: unlimited
  | Maximum stacksize for task 169: unlimited
  | Maximum stacksize for task 170: unlimited
  | Maximum stacksize for task 171: unlimited
  | Maximum stacksize for task 172: unlimited
  | Maximum stacksize for task 173: unlimited
  | Maximum stacksize for task 174: unlimited
  | Maximum stacksize for task 175: unlimited
  | Maximum stacksize for task 176: unlimited
  | Maximum stacksize for task 177: unlimited
  | Maximum stacksize for task 178: unlimited
  | Maximum stacksize for task 179: unlimited
  | Maximum stacksize for task 180: unlimited
  | Maximum stacksize for task 181: unlimited
  | Maximum stacksize for task 182: unlimited
  | Maximum stacksize for task 183: unlimited
  | Maximum stacksize for task 184: unlimited
  | Maximum stacksize for task 185: unlimited
  | Maximum stacksize for task 186: unlimited
  | Maximum stacksize for task 187: unlimited
  | Maximum stacksize for task 188: unlimited
  | Maximum stacksize for task 189: unlimited
  | Maximum stacksize for task 190: unlimited
  | Maximum stacksize for task 191: unlimited
  | Maximum stacksize for task 192: unlimited
  | Maximum stacksize for task 193: unlimited
  | Maximum stacksize for task 194: unlimited
  | Maximum stacksize for task 195: unlimited
  | Maximum stacksize for task 196: unlimited
  | Maximum stacksize for task 197: unlimited
  | Maximum stacksize for task 198: unlimited
  | Maximum stacksize for task 199: unlimited
  | Maximum stacksize for task 200: unlimited
  | Maximum stacksize for task 201: unlimited
  | Maximum stacksize for task 202: unlimited
  | Maximum stacksize for task 203: unlimited
  | Maximum stacksize for task 204: unlimited
  | Maximum stacksize for task 205: unlimited
  | Maximum stacksize for task 206: unlimited
  | Maximum stacksize for task 207: unlimited
  | Maximum stacksize for task 208: unlimited
  | Maximum stacksize for task 209: unlimited
  | Maximum stacksize for task 210: unlimited
  | Maximum stacksize for task 211: unlimited
  | Maximum stacksize for task 212: unlimited
  | Maximum stacksize for task 213: unlimited
  | Maximum stacksize for task 214: unlimited
  | Maximum stacksize for task 215: unlimited
  | Maximum stacksize for task 216: unlimited
  | Maximum stacksize for task 217: unlimited
  | Maximum stacksize for task 218: unlimited
  | Maximum stacksize for task 219: unlimited
  | Maximum stacksize for task 220: unlimited
  | Maximum stacksize for task 221: unlimited
  | Maximum stacksize for task 222: unlimited
  | Maximum stacksize for task 223: unlimited
  | Maximum stacksize for task 224: unlimited
  | Maximum stacksize for task 225: unlimited
  | Maximum stacksize for task 226: unlimited
  | Maximum stacksize for task 227: unlimited
  | Maximum stacksize for task 228: unlimited
  | Maximum stacksize for task 229: unlimited
  | Maximum stacksize for task 230: unlimited
  | Maximum stacksize for task 231: unlimited
  | Maximum stacksize for task 232: unlimited
  | Maximum stacksize for task 233: unlimited
  | Maximum stacksize for task 234: unlimited
  | Maximum stacksize for task 235: unlimited
  | Maximum stacksize for task 236: unlimited
  | Maximum stacksize for task 237: unlimited
[...]
  |   32         -0.615633520236158E-03         -0.277093212964051E-03          0.182056514430690E-02
  |   33          0.189252655994065E-02          0.256284201260186E-02         -0.283005255380831E-05
  |   34         -0.764334709245779E-03         -0.763652514870953E-03         -0.303312347383241E-02
  |   35          0.616334815071707E-03         -0.277422346874842E-03          0.182125491811586E-02
  |   36          0.329161400011154E-02         -0.329190486343075E-02          0.215004853971435E-02
  |   37          0.946570815632861E-03          0.698408877095052E-06         -0.556349778369876E-06
  |   38         -0.197441857162007E-02         -0.197308740412921E-02         -0.114976826715551E-02
  |   39          0.147789235580389E-05         -0.166281556906532E-05          0.559400501593785E-03
  |   40         -0.399084831293243E-06          0.808852402835344E-03          0.103192479716742E-05
  |   41         -0.189312017191213E-02         -0.256317669732231E-02          0.407649838393762E-05
  |   42          0.764132976908385E-03          0.763880328726016E-03          0.303292443092678E-02
  |   43         -0.616287892005368E-03          0.277204691063173E-03         -0.182172188554982E-02
  |   44         -0.329158431299742E-02          0.329254860424312E-02         -0.214881212467092E-02
  |   45         -0.764579948650350E-03          0.764242205709359E-03          0.303274412451503E-02
  |   46          0.188897575002457E-02         -0.256051966018720E-02          0.105745404805901E-05
  |   47          0.329026803160801E-02          0.329246713549652E-02         -0.214826396149600E-02
  |   48          0.615699378348399E-03          0.277671442983874E-03         -0.182081745001467E-02
  |   49         -0.363148443400910E-02          0.226933268801511E-04          0.578085019811037E-02
  |   50          0.124169541530616E-02          0.124333288604246E-02          0.929057690363951E-05
  |   51          0.154808816831900E-05         -0.379983771979297E-05          0.350764251873913E-05
  |   52          0.281924143118678E-05         -0.366113466009721E-02          0.134423744455860E-02
  |   53         -0.868450608745135E-03          0.271763962694307E-02          0.141635902649836E-02
  |   54          0.309495386360159E-03          0.310537820105742E-03          0.269546012284386E-02
  |   55          0.867407795873453E-03          0.271762319537237E-02         -0.141217669233627E-02
  |   56         -0.308230238559695E-03          0.308449564322578E-03         -0.269446848307179E-02
  |   57         -0.310542494063226E-03          0.310609814055047E-03          0.269692167468060E-02
  |   58          0.876619823705721E-03          0.271646110818750E-02          0.141943960925116E-02
  |   59          0.311091369894848E-03          0.310245232534403E-03         -0.269479091697686E-02
  |   60         -0.872400075196138E-03          0.271390078434370E-02         -0.141702554497423E-02
  |   61         -0.364746758993399E-02         -0.974668950752061E-05         -0.580512546173352E-02
  |   62         -0.197498398219522E-02         -0.197203585461120E-02          0.115076893766786E-02
  |   63         -0.254206956576861E-05          0.230848206527360E-06         -0.552802344645116E-03
  |   64         -0.397425682251124E-05         -0.365898419081701E-02         -0.134828252378776E-02
  |   65          0.615913881083670E-03          0.277944432637367E-03          0.182140407850490E-02
  |   66          0.329189660891369E-02          0.329107675163652E-02          0.215028557589049E-02
  |   67          0.189376070315687E-02         -0.256147533938388E-02         -0.387514338912598E-05
  |   68         -0.763731276329729E-03          0.762766604099028E-03         -0.303330236331903E-02
  |   69         -0.329032637117501E-02          0.329065020327338E-02          0.214940008047725E-02
  |   70         -0.614813983525777E-03          0.277941610413486E-03          0.182057068263692E-02
  |   71          0.764039062902300E-03          0.763708729935541E-03         -0.303250869785897E-02
  |   72         -0.188955644384458E-02         -0.255971745771709E-02         -0.288951760918784E-06
  |   73         -0.811037152141384E-03          0.229236552004635E-06          0.523468964831119E-06
  |   74          0.197387807362296E-02          0.197337352719609E-02         -0.114602227660316E-02
  |   75         -0.452145657621201E-06         -0.190400099001248E-05          0.557675021032860E-03
  |   76          0.371582824026986E-06         -0.944598098594525E-03         -0.606811576645364E-06
  |   77          0.256418233140431E-02          0.189459625443817E-02          0.431718812871386E-05
  |   78          0.151253532175550E-02          0.151267031506624E-02         -0.572350105653028E-02
  |   79          0.278303857189013E-03         -0.615869192122800E-03         -0.182006642241423E-02
  |   80          0.279553505579444E-02         -0.279430505236853E-02          0.633970631748762E-03
  |   81         -0.151211799734820E-02          0.151208278116035E-02         -0.572222519100792E-02
  |   82         -0.256263628285144E-02          0.189579413641695E-02          0.542496793266360E-05
  |   83         -0.278996583511422E-02         -0.279595067952361E-02          0.627799679018434E-03
  |   84         -0.277678498135974E-03         -0.616349661782017E-03         -0.182104705572513E-02
  |   85          0.366100557786685E-02         -0.175357809376285E-05          0.132917111572037E-02
  |   86         -0.123838514884933E-02         -0.124255912904688E-02         -0.709435388679901E-05
  |   87          0.609265388992876E-07          0.110289625479491E-05          0.421056136361138E-05
  |   88         -0.239839393732896E-04          0.363203554152185E-02          0.577996301887327E-02
  |   89         -0.271666576355932E-02          0.868320632521066E-03          0.141549518199043E-02
  |   90         -0.332335229146384E-02         -0.332296906111303E-02          0.275155342520677E-02
  |   91          0.271593406881945E-02          0.874890977715573E-03         -0.141748385690035E-02
  |   92          0.334215232198465E-02         -0.334173995993714E-02         -0.273053196814350E-02
  |   93          0.326652974994039E-02         -0.326642978824861E-02          0.280834649773258E-02
  |   94          0.271575899250208E-02          0.867187937470618E-03          0.141283709321786E-02
  |   95         -0.331268941221426E-02         -0.331238489943389E-02         -0.276078608559144E-02
  |   96         -0.271256593293394E-02          0.869849831987529E-03         -0.141601909867819E-02
  |   97          0.365929014014306E-02          0.516609365267433E-05         -0.134211630365191E-02
  |   98          0.197417694726134E-02          0.197315181593506E-02          0.114838087902924E-02
  |   99          0.261618580883733E-05          0.147355063705299E-05         -0.557830317645697E-03
  |  100          0.127571863852898E-04          0.364200342126494E-02         -0.580960741243818E-02
  |  101         -0.277741000596560E-03         -0.616352720617987E-03          0.182090902736241E-02
  |  102         -0.279592103349072E-02         -0.278969690347431E-02         -0.627817110355026E-03
  |  103         -0.256254381089264E-02          0.189240359611931E-02         -0.630659933490788E-06
  |  104         -0.151326880464595E-02          0.151314229742987E-02          0.572374128662971E-02
  |  105          0.279203807267281E-02         -0.279223747900106E-02         -0.622636362833463E-03
  |  106          0.277390733023972E-03         -0.616734132331712E-03          0.182165876700671E-02
  |  107          0.151240823393690E-02          0.151319110495479E-02          0.572298947432675E-02
  |  108          0.256140776565583E-02          0.189260967455879E-02         -0.153056816288500E-05
  |  109         -0.945480027520240E-03         -0.337636141286182E-06          0.251353401150462E-05
  |  110          0.197695547737310E-02         -0.197675778538282E-02         -0.114963818489906E-02
  |  111         -0.304443363839768E-05          0.352730351987113E-05          0.624746403334673E-02
  |  112          0.316112839563379E-06          0.945288575059953E-03          0.286487602843936E-05
  |  113         -0.279186170016899E-02          0.279301344934773E-02          0.624731089816564E-03
  |  114         -0.277489675255562E-03          0.616867873909458E-03         -0.182145098709931E-02
  |  115         -0.151234570232034E-02         -0.151277434734607E-02         -0.572327138737108E-02
  |  116         -0.256133258380995E-02         -0.189202207537732E-02          0.321757456577162E-05
  |  117          0.277872241204460E-03          0.616733170416896E-03         -0.182105547974471E-02
  |  118          0.279668420065538E-02          0.278984929339859E-02          0.629143661462656E-03
  |  119          0.256259575386531E-02         -0.189168882964330E-02          0.214923171236966E-05
  |  120          0.151274737606558E-02         -0.151280196508668E-02         -0.572435088577980E-02
  |  121          0.364674627828064E-02          0.703345293286400E-05          0.579872633558888E-02
  |  122         -0.124781116724366E-02          0.125001604316069E-02         -0.344118455571767E-04
  |  123          0.487769752164498E-06          0.550370844499327E-06          0.220988536236520E-05
  |  124         -0.141030835215450E-04         -0.364403449498826E-02          0.579182961912931E-02
  |  125         -0.326571133748465E-02          0.326586398014943E-02         -0.280826119004360E-02
  |  126         -0.271564042862933E-02         -0.867049551148236E-03         -0.141153639855795E-02
  |  127          0.331302562509197E-02          0.331348775639416E-02          0.276213607487047E-02
  |  128          0.271220426880593E-02         -0.870829736284094E-03          0.141632566720366E-02
  |  129          0.271675760962489E-02         -0.868470979776450E-03         -0.141450444211936E-02
  |  130          0.332255511743284E-02          0.332253596775188E-02         -0.275080276483010E-02
  |  131         -0.271600785040698E-02         -0.875852971391823E-03          0.141782798001971E-02
  |  132         -0.334226557098466E-02          0.334272661589563E-02          0.273258289552377E-02
  |  133          0.363024622019685E-02         -0.244789353344058E-04         -0.578449857826333E-02
  |  134          0.197228628579099E-02         -0.197073158764513E-02          0.114962928117346E-02
  |  135          0.320918615977002E-05         -0.484900813686398E-05         -0.624940491968821E-02
  |  136          0.252608071322492E-04         -0.362903915272098E-02         -0.579294745064399E-02
  |  137          0.151192920579957E-02         -0.151201203568902E-02          0.572266611460412E-02
  |  138          0.256240850138524E-02         -0.189610053869974E-02         -0.408770648946321E-05
  |  139          0.279005079300901E-02          0.279549664346296E-02         -0.626168904888441E-03
  |  140          0.277637449620626E-03          0.616186230840842E-03          0.182168236097150E-02
  |  141         -0.256431894665669E-02         -0.189459188540103E-02         -0.245490460567842E-05
  |  142         -0.151316055721231E-02         -0.151234682219878E-02          0.572373370945318E-02
  |  143         -0.278231963246267E-03          0.615371150830891E-03          0.182049753335715E-02
  |  144         -0.279515651016198E-02          0.279417723272361E-02         -0.633111109717775E-03

  ------------------------------------ 
  Start decomposition of the XC Energy 
  ------------------------------------ 
  X and C from original XC functional choice 
  Hartree-Fock Energy :          0.000000000 Ha              0.000000000 eV
  X Energy            :     -10939.163273901 Ha        -297669.777954402 eV
  C Energy            :       -203.353307580 Ha          -5533.525041903 eV
  XC Energy w/o HF    :     -11142.516581481 Ha        -303203.302996305 eV
  Total XC Energy     :     -11142.516581481 Ha        -303203.302996305 eV
  ------------------------------------ 
  LDA X and C from self-consistent density 
  X Energy LDA        :     -10123.392591076 Ha        -275471.528240225 eV
  C Energy LDA        :       -322.236374828 Ha          -8768.497895340 eV
  ------------------------------------ 
  End decomposition of the XC Energy 
  ------------------------------------ 

------------------------------------------------------------

------------------------------------------------------------------------------
  Final output of selected total energy values:

  The following output summarizes some interesting total energy values
  at the end of a run (AFTER all relaxation, molecular dynamics, etc.).

  | Total energy of the DFT / Hartree-Fock s.c.f. calculation      :      -11786859.204350986 eV
  | Final zero-broadening corrected energy (caution - metals only) :      -11786859.281450152 eV
  | For reference only, the value of 1 Hartree used in FHI-aims is :             27.211384500 eV
  | For reference only, the overall average (free atom contribution
  | + realspace contribution) of the electrostatic potential after
  | s.c.f. convergence is                                          :            -22.120472119 eV

  Before relying on these values, please be sure to understand exactly which
  total energy value is referred to by a given number. Different objects may
  all carry the same name 'total energy'. Definitions:

  Total energy of the DFT / Hartree-Fock s.c.f. calculation:
  | Note that this energy does not include ANY quantities calculated after the
  | s.c.f. cycle, in particular not ANY RPA, MP2, etc. many-body perturbation terms.

  Final zero-broadening corrected energy:
  | For metallic systems only, a broadening of the occupation numbers at the Fermi
  | level can be extrapolated back to zero broadening by an electron-gas inspired
  | formula. For all systems that are not real metals, this value can be
  | meaningless and should be avoided.

------------------------------------------------------------------------------
  Methods described in the following list of references were used in this FHI-aims run.
  If you publish the results, please make sure to cite these reference if they apply.
  FHI-aims is an academic code, and for our developers (often, Ph.D. students
  and postdocs), scientific credit in the community is essential.
  Thank you for helping us!

  For any use of FHI-aims, please cite:

    Volker Blum, Ralf Gehrke, Felix Hanke, Paula Havu, Ville Havu,
    Xinguo Ren, Karsten Reuter, and Matthias Scheffler
    'Ab initio molecular simulations with numeric atom-centered orbitals'
    Computer Physics Communications 180, 2175-2196 (2009)
    http://doi.org/10.1016/j.cpc.2009.06.022


  The provided symmetry information was generated with SPGlib:

    Atsushi Togo, Yusuke Seto, Dimitar Pashov
    SPGlib 1.7.3 obtained from http://spglib.sourceforge.net
    Copyright (C) 2008 Atsushi Togo


 DFT+U infrastructure was used in your run
 please cite:

 Matthias Kick, Karsten Reuter and Harald Oberhofer,
 Intricacies Of DFT+U, not only in a Numeric Atom Centered Orbital Framework

 Journal of Chemical Theory and Computation
 https://


  The ELSI infrastructure was used in your run to solve the Kohn-Sham electronic structure.
  Please check out http://elsi-interchange.org to learn more.
  If scalability is important for your project, please acknowledge ELSI by citing:

    V. W-z. Yu, F. Corsetti, A. Garcia, W. P. Huhn, M. Jacquelin, W. Jia,
    B. Lange, L. Lin, J. Lu, W. Mi, A. Seifitokaldani, A. Vazquez-Mayagoitia,
    C. Yang, H. Yang, and V. Blum
    'ELSI: A unified software interface for Kohn-Sham electronic structure solvers'
    Computer Physics Communications 222, 267-285 (2018).
    http://doi.org/10.1016/j.cpc.2017.09.007


  For the real-space grid partitioning and parallelization used in this calculation, please cite:

    Ville Havu, Volker Blum, Paula Havu, and Matthias Scheffler,
    'Efficient O(N) integration for all-electron electronic structure calculation'
    'using numerically tabulated basis functions'
    Journal of Computational Physics 228, 8367-8379 (2009).
    http://doi.org/10.1016/j.jcp.2009.08.008

  Of course, there are many other important community references, e.g., those cited in the
  above references. Our list is limited to references that describe implementations in the
  FHI-aims code. The reason is purely practical (length of this list) - please credit others as well.

 * A warning was issued further up regarding the accuracy of onsite integrals.
   An integral with a negative eigenvalue was among the flagged integrals.
   In most standard situations, this warning is probably harmless.
   If needed, this can be verified by adjusting the radial_multiplier flag.

   One or more s.c.f. cycles took more than 50 s.c.f. iterations.
   It might be worth adjusting your convergence settings. For example,
   metals need a larger broadening and a smaller "charge_mix_param" value than semiconductors.

 * Warning - a code part requested a citation which was not known
 * to subroutine cite_reference in module applicable_citations.f90 .
 * Likely this is a programmer's oversight. Please let us know.

------------------------------------------------------------
          Leaving FHI-aims.
          Date     :  20250608, Time     :  055355.897

          Computational steps:
          | Number of self-consistency cycles          :           62
          | Number of SCF (re)initializations          :            1

          Detailed time accounting                     :  max(cpu_time)    wall_clock(cpu1)
          | Total time                                  :     1347.035 s        1351.448 s
          | Preparation time                            :        0.960 s           0.961 s
          | Boundary condition initalization            :        0.407 s           0.375 s
          | Grid partitioning                           :        0.611 s           0.612 s
          | Preloading free-atom quantities on grid     :        0.647 s           0.650 s
          | Free-atom superposition energy              :        0.098 s           0.098 s
          | Total time for integrations                 :      158.042 s         158.412 s
          | Total time for solution of K.-S. equations  :      746.967 s         742.390 s
          | Total time for density & force components   :      310.057 s         310.813 s
          | Total time for mixing                       :        1.015 s           0.492 s
          | Total time for Hartree multipole update     :        0.678 s           0.701 s
          | Total time for Hartree multipole sum        :       28.983 s          29.061 s
          | Total time for total energy evaluation      :        0.111 s           0.289 s
          | Total time NSC force correction             :        2.762 s           2.777 s
          | Total time for scaled ZORA corrections      :        0.000 s           0.000 s

          Partial memory accounting:
          | Residual value for overall tracked memory usage across tasks:     0.000000 MB (should be 0.000000 MB)
          | Peak values for overall tracked memory usage:
          |   Minimum:      404.825 MB (on task   7 after allocating temp_ham_ovlp)
          |   Maximum:      417.194 MB (on task  10 after allocating temp_ham_ovlp)
          |   Average:      413.293 MB
          | Largest tracked array allocation:
          |   Minimum:       98.882 MB (overlap_matrix on task   0)
          |   Maximum:       98.882 MB (overlap_matrix on task   0)
          |   Average:       98.882 MB
          Note:  These values currently only include a subset of arrays which are explicitly tracked.
          The "true" memory usage will be greater.

          Have a nice day.
------------------------------------------------------------
