------------------------------------------------------------
          Invoking FHI-aims ...

          When using FHI-aims, please cite the following reference:

            Volker Blum, Ralf Gehrke, Felix Hanke, Paula Havu,
            Ville Havu, Xinguo Ren, Karsten Reuter, and Matthias Scheffler,
            'Ab Initio Molecular Simulations with Numeric Atom-Centered Orbitals',
            Computer Physics Communications 180, 2175-2196 (2009)

          In addition, many other developments in FHI-aims are likely important for
          your particular application. If so, please cite them. A partial list of references
          is written at the end of this file. Thank you for giving credit to the authors
          of these developments.

          For general information about FHI-aims please find us at

            https://fhi-aims.org

          Online tutorials can be found at

            https://fhi-aims-club.gitlab.io/tutorials/tutorials-overview/

          For any questions about FHI-aims, please visit our slack channel at

            https://fhi-aims.slack.com

          and our main development and support site at

            https://aims-git.rz-berlin.mpg.de .

          The latter site, in particular, has a wiki to collect information, as well
          as an issue tracker to log discussions, suggest improvements, and report issues
          or bugs. https://aims-git.rz-berlin.mpg.de is also the main development site
          of the project and all new and updated code versions can be obtained there.
          Please send an email to aims-coordinators@fhi-berlin.mpg.de and we will add
          you to these sites. They are for you and everyone is welcome there.

------------------------------------------------------------



  Date     :  20250608, Time     :  015758.370
  Time zero on CPU 1             :   0.257649000000000E+00  s.
  Internal wall clock time zero  :           518579878.370  s.

  FHI-aims created a unique identifier for this run for later identification
  aims_uuid : E8E98C18-DBA2-4389-A714-C0833C4E1F09

  Build configuration of the current instance of FHI-aims
  -------------------------------------------------------
  FHI-aims version      : 230905
  Commit number         : 6362ac204
  CMake host system     : Linux-3.10.0-1160.119.1.el7.x86_64
  CMake version         : 3.14.3
  Fortran compiler      : /apps/compilers/intel/2018.2/compilers_and_libraries_2018/linux/mpi/intel64/bin/mpif90 (Intel) version 18.0.2.20180210
  Fortran compiler flags: -O3 -ip -fp-model precise
  C compiler            : /apps/compilers/intel/2018.2/compilers_and_libraries_2018/linux/bin/intel64/icc (Intel) version 18.0.2.20180210
  C compiler flags      : -O3 -ip -fp-model precise
  C++ compiler          : /apps/compilers/intel/2018.2/compilers_and_libraries_2018/linux/bin/intel64/icpc (Intel) version 18.0.2.20180210
  C++ compiler flags    : -O3 -ip -fp-model precise
  HIP compiler          :
  HIP compiler flags    :
  HIP GPU arch          :
  ELPA2 kernel          : AVX2
  Using MPI
  Using ScaLAPACK
  Using LibXC
  Using i-PI
  Using RLSY
  Linking against: /apps/compilers/intel/2018.2/compilers_and_libraries_2018/linux/mkl/lib/intel64/libmkl_intel_lp64.so
                   /apps/compilers/intel/2018.2/compilers_and_libraries_2018/linux/mkl/lib/intel64/libmkl_intel_thread.so
                   /apps/compilers/intel/2018.2/compilers_and_libraries_2018/linux/mkl/lib/intel64/libmkl_core.so
                   /apps/compilers/intel/2018.2/compilers_and_libraries_2018/linux/mkl/lib/intel64/libmkl_blacs_intelmpi_lp64.so
                   /apps/compilers/intel/2018.2/compilers_and_libraries_2018/linux/mkl/lib/intel64/libmkl_scalapack_lp64.so
                   /usr/lib64/libpthread.so

  Using      240 parallel tasks.
  Task        0 on host ccs0065 reporting.
  Task        1 on host ccs0065 reporting.
  Task        2 on host ccs0065 reporting.
  Task        3 on host ccs0065 reporting.
  Task        4 on host ccs0065 reporting.
  Task        5 on host ccs0065 reporting.
  Task        6 on host ccs0065 reporting.
  Task        7 on host ccs0065 reporting.
  Task        8 on host ccs0065 reporting.
  Task        9 on host ccs0065 reporting.
  Task       10 on host ccs0065 reporting.
  Task       11 on host ccs0065 reporting.
  Task       12 on host ccs0065 reporting.
  Task       13 on host ccs0065 reporting.
  Task       14 on host ccs0065 reporting.
  Task       15 on host ccs0065 reporting.
  Task       16 on host ccs0065 reporting.
  Task       17 on host ccs0065 reporting.
  Task       18 on host ccs0065 reporting.
  Task       19 on host ccs0065 reporting.
  Task       20 on host ccs0065 reporting.
  Task       21 on host ccs0065 reporting.
  Task       22 on host ccs0065 reporting.
  Task       23 on host ccs0065 reporting.
  Task       24 on host ccs0065 reporting.
  Task       25 on host ccs0065 reporting.
  Task       26 on host ccs0065 reporting.
  Task       27 on host ccs0065 reporting.
  Task       28 on host ccs0065 reporting.
  Task       29 on host ccs0065 reporting.
  Task       30 on host ccs0065 reporting.
  Task       31 on host ccs0065 reporting.
  Task       32 on host ccs0065 reporting.
  Task       33 on host ccs0065 reporting.
  Task       34 on host ccs0065 reporting.
  Task       35 on host ccs0065 reporting.
  Task       36 on host ccs0065 reporting.
  Task       37 on host ccs0065 reporting.
  Task       38 on host ccs0065 reporting.
  Task       39 on host ccs0065 reporting.
  Task       40 on host ccs0081 reporting.
  Task       41 on host ccs0081 reporting.
  Task       42 on host ccs0081 reporting.
  Task       43 on host ccs0081 reporting.
  Task       44 on host ccs0081 reporting.
  Task       45 on host ccs0081 reporting.
  Task       46 on host ccs0081 reporting.
  Task       47 on host ccs0081 reporting.
  Task       48 on host ccs0081 reporting.
  Task       49 on host ccs0081 reporting.
  Task       50 on host ccs0081 reporting.
  Task       51 on host ccs0081 reporting.
  Task       52 on host ccs0081 reporting.
  Task       53 on host ccs0081 reporting.
  Task       54 on host ccs0081 reporting.
  Task       55 on host ccs0081 reporting.
  Task       56 on host ccs0081 reporting.
  Task       57 on host ccs0081 reporting.
  Task       58 on host ccs0081 reporting.
  Task       59 on host ccs0081 reporting.
  Task       60 on host ccs0081 reporting.
  Task       61 on host ccs0081 reporting.
  Task       62 on host ccs0081 reporting.
  Task       63 on host ccs0081 reporting.
  Task       64 on host ccs0081 reporting.
  Task       65 on host ccs0081 reporting.
  Task       66 on host ccs0081 reporting.
  Task       67 on host ccs0081 reporting.
  Task       68 on host ccs0081 reporting.
  Task       69 on host ccs0081 reporting.
  Task       70 on host ccs0081 reporting.
  Task       71 on host ccs0081 reporting.
  Task       72 on host ccs0081 reporting.
  Task       73 on host ccs0081 reporting.
  Task       74 on host ccs0081 reporting.
  Task       75 on host ccs0081 reporting.
  Task       76 on host ccs0081 reporting.
  Task       77 on host ccs0081 reporting.
  Task       78 on host ccs0081 reporting.
  Task       79 on host ccs0081 reporting.
  Task       80 on host ccs0092 reporting.
  Task       81 on host ccs0092 reporting.
  Task       82 on host ccs0092 reporting.
  Task       83 on host ccs0092 reporting.
  Task       84 on host ccs0092 reporting.
  Task       85 on host ccs0092 reporting.
  Task       86 on host ccs0092 reporting.
  Task       87 on host ccs0092 reporting.
  Task       88 on host ccs0092 reporting.
  Task       89 on host ccs0092 reporting.
  Task       90 on host ccs0092 reporting.
  Task       91 on host ccs0092 reporting.
  Task       92 on host ccs0092 reporting.
  Task       93 on host ccs0092 reporting.
  Task       94 on host ccs0092 reporting.
  Task       95 on host ccs0092 reporting.
  Task       96 on host ccs0092 reporting.
  Task       97 on host ccs0092 reporting.
  Task       98 on host ccs0092 reporting.
  Task       99 on host ccs0092 reporting.
  Task      100 on host ccs0092 reporting.
  Task      101 on host ccs0092 reporting.
  Task      102 on host ccs0092 reporting.
  Task      103 on host ccs0092 reporting.
  Task      104 on host ccs0092 reporting.
  Task      105 on host ccs0092 reporting.
  Task      106 on host ccs0092 reporting.
  Task      107 on host ccs0092 reporting.
  Task      108 on host ccs0092 reporting.
  Task      109 on host ccs0092 reporting.
  Task      110 on host ccs0092 reporting.
  Task      111 on host ccs0092 reporting.
  Task      112 on host ccs0092 reporting.
  Task      113 on host ccs0092 reporting.
  Task      114 on host ccs0092 reporting.
  Task      115 on host ccs0092 reporting.
  Task      116 on host ccs0092 reporting.
  Task      117 on host ccs0092 reporting.
  Task      118 on host ccs0092 reporting.
  Task      119 on host ccs0092 reporting.
  Task      120 on host ccs0093 reporting.
  Task      121 on host ccs0093 reporting.
  Task      122 on host ccs0093 reporting.
  Task      123 on host ccs0093 reporting.
  Task      124 on host ccs0093 reporting.
  Task      125 on host ccs0093 reporting.
  Task      126 on host ccs0093 reporting.
  Task      127 on host ccs0093 reporting.
  Task      128 on host ccs0093 reporting.
  Task      129 on host ccs0093 reporting.
  Task      130 on host ccs0093 reporting.
  Task      131 on host ccs0093 reporting.
  Task      132 on host ccs0093 reporting.
  Task      133 on host ccs0093 reporting.
  Task      134 on host ccs0093 reporting.
  Task      135 on host ccs0093 reporting.
  Task      136 on host ccs0093 reporting.
  Task      137 on host ccs0093 reporting.
  Task      138 on host ccs0093 reporting.
  Task      139 on host ccs0093 reporting.
  Task      140 on host ccs0093 reporting.
  Task      141 on host ccs0093 reporting.
  Task      142 on host ccs0093 reporting.
  Task      143 on host ccs0093 reporting.
  Task      144 on host ccs0093 reporting.
  Task      145 on host ccs0093 reporting.
  Task      146 on host ccs0093 reporting.
  Task      147 on host ccs0093 reporting.
  Task      148 on host ccs0093 reporting.
  Task      149 on host ccs0093 reporting.
  Task      150 on host ccs0093 reporting.
  Task      151 on host ccs0093 reporting.
  Task      152 on host ccs0093 reporting.
  Task      153 on host ccs0093 reporting.
  Task      154 on host ccs0093 reporting.
  Task      155 on host ccs0093 reporting.
  Task      156 on host ccs0093 reporting.
  Task      157 on host ccs0093 reporting.
  Task      158 on host ccs0093 reporting.
  Task      159 on host ccs0093 reporting.
  Task      160 on host ccs0096 reporting.
  Task      161 on host ccs0096 reporting.
  Task      162 on host ccs0096 reporting.
  Task      163 on host ccs0096 reporting.
  Task      164 on host ccs0096 reporting.
  Task      165 on host ccs0096 reporting.
  Task      166 on host ccs0096 reporting.
  Task      167 on host ccs0096 reporting.
  Task      168 on host ccs0096 reporting.
  Task      169 on host ccs0096 reporting.
  Task      170 on host ccs0096 reporting.
  Task      171 on host ccs0096 reporting.
  Task      172 on host ccs0096 reporting.
  Task      173 on host ccs0096 reporting.
  Task      174 on host ccs0096 reporting.
  Task      175 on host ccs0096 reporting.
  Task      176 on host ccs0096 reporting.
  Task      177 on host ccs0096 reporting.
  Task      178 on host ccs0096 reporting.
  Task      179 on host ccs0096 reporting.
  Task      180 on host ccs0096 reporting.
  Task      181 on host ccs0096 reporting.
  Task      182 on host ccs0096 reporting.
  Task      183 on host ccs0096 reporting.
  Task      184 on host ccs0096 reporting.
  Task      185 on host ccs0096 reporting.
  Task      186 on host ccs0096 reporting.
  Task      187 on host ccs0096 reporting.
  Task      188 on host ccs0096 reporting.
  Task      189 on host ccs0096 reporting.
  Task      190 on host ccs0096 reporting.
  Task      191 on host ccs0096 reporting.
  Task      192 on host ccs0096 reporting.
  Task      193 on host ccs0096 reporting.
  Task      194 on host ccs0096 reporting.
  Task      195 on host ccs0096 reporting.
  Task      196 on host ccs0096 reporting.
  Task      197 on host ccs0096 reporting.
  Task      198 on host ccs0096 reporting.
  Task      199 on host ccs0096 reporting.
  Task      200 on host ccs0117 reporting.
  Task      201 on host ccs0117 reporting.
  Task      202 on host ccs0117 reporting.
  Task      203 on host ccs0117 reporting.
  Task      204 on host ccs0117 reporting.
  Task      205 on host ccs0117 reporting.
  Task      206 on host ccs0117 reporting.
  Task      207 on host ccs0117 reporting.
  Task      208 on host ccs0117 reporting.
  Task      209 on host ccs0117 reporting.
  Task      210 on host ccs0117 reporting.
  Task      211 on host ccs0117 reporting.
  Task      212 on host ccs0117 reporting.
  Task      213 on host ccs0117 reporting.
  Task      214 on host ccs0117 reporting.
  Task      215 on host ccs0117 reporting.
  Task      216 on host ccs0117 reporting.
  Task      217 on host ccs0117 reporting.
  Task      218 on host ccs0117 reporting.
  Task      219 on host ccs0117 reporting.
  Task      220 on host ccs0117 reporting.
  Task      221 on host ccs0117 reporting.
  Task      222 on host ccs0117 reporting.
  Task      223 on host ccs0117 reporting.
  Task      224 on host ccs0117 reporting.
  Task      225 on host ccs0117 reporting.
  Task      226 on host ccs0117 reporting.
  Task      227 on host ccs0117 reporting.
  Task      228 on host ccs0117 reporting.
  Task      229 on host ccs0117 reporting.
  Task      230 on host ccs0117 reporting.
  Task      231 on host ccs0117 reporting.
  Task      232 on host ccs0117 reporting.
  Task      233 on host ccs0117 reporting.
  Task      234 on host ccs0117 reporting.
  Task      235 on host ccs0117 reporting.
  Task      236 on host ccs0117 reporting.
  Task      237 on host ccs0117 reporting.
  Task      238 on host ccs0117 reporting.
  Task      239 on host ccs0117 reporting.

  Memory overcommitment is allowed on your operating system.

  Obtaining array dimensions for all initial allocations:
  
  -----------------------------------------------------------------------
  Parsing control.in (first pass over file, find array dimensions only).
  The contents of control.in will be repeated verbatim below
  unless switched off by setting 'verbatim_writeout .false.' .
  in the first line of control.in .
  -----------------------------------------------------------------------
  
  #===============================================================================
  # FHI-aims file: ./control.in
  # Created using the Atomic Simulation Environment (ASE)
  # Sun Jun  8 01:57:57 2025
  #===============================================================================
  compute_forces                     .true.
  xc                                 mbeef
  k_grid                             3 3 2
  relativistic                       atomic_zora scalar
  occupation_type                    gaussian 0.1
  plus_u_petukhov_mixing             1
  plus_u_use_hydros                  True
  plus_u_matrix_control              True
  plus_u_matrix_release              0.001
  sc_accuracy_etot                   1e-06
  sc_accuracy_eev                    0.001
  sc_accuracy_rho                    1e-06
  sc_accuracy_forces                 0.0001
  #===============================================================================
  
  ################################################################################
  #
  #  FHI-aims code project
  #  VB, Fritz-Haber Institut, 2009
  #
  #  Suggested "light" defaults for Ti atom (to be pasted into control.in file)
  #  Be sure to double-check any results obtained with these settings for post-processing,
  #  e.g., with the "tight" defaults and larger basis sets.
  #
  ################################################################################
    species        Ti
  #     global species definitions
      nucleus             22
      mass                47.867
  #
      l_hartree           4
  #
      cut_pot             3.5          1.5  1.0
      basis_dep_cutoff    1e-4
  #
      radial_base         48 5.0
      radial_multiplier   1
      angular_grids       specified
        division   0.5171   50
        division   0.9824  110
        division   1.2917  194
        division   1.4940  302
  #      division   1.6934  434
  #      division   1.8425  590
  #      division   2.1901  770
  #      division   2.2896  974
  #      division   2.8244 1202
  #      outer_grid  974
        outer_grid  302
  ################################################################################
  #
  #  Definition of "minimal" basis
  #
  ################################################################################
  #     valence basis states
      valence      4  s   2.
      valence      3  p   6.
      valence      3  d   2.
  #     ion occupancy
      ion_occ      4  s   1.
      ion_occ      3  p   6.
      ion_occ      3  d   1.
  ################################################################################
  #
  #  Suggested additional basis functions. For production calculations,
  #  uncomment them one after another (the most important basis functions are
  #  listed first).
  #
  #  Constructed for dimers: 1.6 A, 1.85 A, 2.5 A, 3.25 A, 4.25 A
  #
  ################################################################################
  #  "First tier" - improvements: -396.25 meV to -19.41 meV
       hydro 4 f 8
       hydro 3 d 2.7
       ionic 4 p auto
  #     hydro 5 g 11.6
       ionic 4 s auto
  #  "Second tier" - improvements: -16.30 meV to -2.03 meV
  #     hydro 3 d 4.4
  #     hydro 6 h 16
  #     hydro 4 f 9.4
  #     hydro 4 p 4.5
  #     hydro 1 s 0.5
  #  "Third tier" - improvements: -6.28 meV to -0.37 meV
  #     hydro 4 d 6.4
  #     hydro 4 f 10
  #     hydro 5 g 12
  #     hydro 2 p 1.7
  #     hydro 6 h 16.4
  #     hydro 4 s 3.8
  #  Further basis functions: -0.45 meV and smaller improvements
  #     hydro 3 d 8.8
  #     hydro 5 p 18
  #     hydro 4 f 22.4
  #     hydro 5 f 7.2  # -0.16 meV
  #     hydro 3 d 2.1  # -0.11 meV
  #     hydro 5 g 7.4  # -0.09 meV
  plus_u 3 d 2.575
  hubbard_coefficient 0.752 -0.486 0 0
  ################################################################################
  #
  #  FHI-aims code project
  #  VB, Fritz-Haber Institut, 2009
  #
  #  Suggested "light" defaults for O atom (to be pasted into control.in file)
  #  Be sure to double-check any results obtained with these settings for post-processing,
  #  e.g., with the "tight" defaults and larger basis sets.
  #
  ################################################################################
    species        O
  #     global species definitions
      nucleus             8
      mass                15.9994
  #
      l_hartree           4
  #
      cut_pot             3.5  1.5  1.0
      basis_dep_cutoff    1e-4
  #
      radial_base         36 5.0
      radial_multiplier   1
       angular_grids specified
        division   0.2659   50
        division   0.4451  110
        division   0.6052  194
        division   0.7543  302
  #      division   0.8014  434
  #      division   0.8507  590
  #      division   0.8762  770
  #      division   0.9023  974
  #      division   1.2339 1202
  #      outer_grid 974
        outer_grid 302
  ################################################################################
  #
  #  Definition of "minimal" basis
  #
  ################################################################################
  #     valence basis states
      valence      2  s   2.
      valence      2  p   4.
  #     ion occupancy
      ion_occ      2  s   1.
      ion_occ      2  p   3.
  ################################################################################
  #
  #  Suggested additional basis functions. For production calculations,
  #  uncomment them one after another (the most important basis functions are
  #  listed first).
  #
  #  Constructed for dimers: 1.0 A, 1.208 A, 1.5 A, 2.0 A, 3.0 A
  #
  ################################################################################
  #  "First tier" - improvements: -699.05 meV to -159.38 meV
       hydro 2 p 1.8
       hydro 3 d 7.6
       hydro 3 s 6.4
  #  "Second tier" - improvements: -49.91 meV to -5.39 meV
  #     hydro 4 f 11.6
  #     hydro 3 p 6.2
  #     hydro 3 d 5.6
  #     hydro 5 g 17.6
  #     hydro 1 s 0.75
  #  "Third tier" - improvements: -2.83 meV to -0.50 meV
  #     ionic 2 p auto
  #     hydro 4 f 10.8
  #     hydro 4 d 4.7
  #     hydro 2 s 6.8
  #  "Fourth tier" - improvements: -0.40 meV to -0.12 meV
  #     hydro 3 p 5
  #     hydro 3 s 3.3
  #     hydro 5 g 15.6
  #     hydro 4 f 17.6
  #     hydro 4 d 14
  # Further basis functions - -0.08 meV and below
  #     hydro 3 s 2.1
  #     hydro 4 d 11.6
  #     hydro 3 p 16
  #     hydro 2 s 17.2
  ################################################################################
  #
  #  FHI-aims code project
  #  VB, Fritz-Haber Institut, 2010
  #
  #  Suggested "light" defaults for Ni atom (to be pasted into control.in file)
  #  Be sure to double-check any results obtained with these settings for post-processing,
  #  e.g., with the "tight" defaults and larger basis sets.
  #
  #  2020/09/15 Added 4 p ionic function from tier 2 to default to improve description of
  #             bulk Ni in "light".
  #
  ################################################################################
    species        Ni
  #     global species definitions
      nucleus             28
      mass                58.6934
  #
      l_hartree           4
  #
      cut_pot             3.5          1.5  1.0
      basis_dep_cutoff    1e-4
  #
      radial_base         52 5.0
      radial_multiplier   1
      angular_grids       specified
        division   0.4449   50
        division   0.8232  110
        division   1.1299  194
        division   1.4513  302
  #      division   1.6613  434
  #      division   1.8317  590
  #      division   1.9829  770
  #      division   2.0231  974
  #      division   2.4367 1202
        outer_grid  302
  ################################################################################
  #
  #  Definition of "minimal" basis
  #
  ################################################################################
  #     valence basis states
      valence      4  s   2.
      valence      3  p   6.
      valence      3  d   8.
  #     ion occupancy
      ion_occ      4  s   1.
      ion_occ      3  p   6.
      ion_occ      3  d   7.
  ################################################################################
  #
  #  Suggested additional basis functions. For production calculations,
  #  uncomment them one after another (the most important basis functions are
  #  listed first).
  #
  #  Constructed for dimers: 1.65 A, 2.00 A, 2.50 A, 3.00 A, 4.00 A
  #
  ################################################################################
  #  "First tier" - improvements: -123.08 meV to -11.61 meV
       hydro 3 p 6
       hydro 4 f 9
  #     hydro 5 g 12.4
       hydro 3 d 5.2
       ionic 4 s auto
  #  "Second tier" - improvements: -6.71 meV to -1.07 meV
       ionic 4 p auto
  #     hydro 4 d 6
  #     hydro 6 h 18
  #     hydro 4 f 9.4
  #     hydro 4 f 16.4
  #     hydro 1 s 0.75
  #  "Third tier" - improvements: -0.57 meV to -0.07 meV
  #     hydro 4 p 18.4
  #     hydro 4 d 8
  #     hydro 5 g 13.2
  #     hydro 5 f 8.4
  #     hydro 6 h 16.8
  #     hydro 4 s 4.4
  #  Further functions: improvements -0.07 meV and below
  #     hydro 5 f 16.8
  #     hydro 4 p 10
  plus_u 3 d 0
  hubbard_coefficient 1 0 0 0
  
  -----------------------------------------------------------------------
  Completed first pass over input file control.in .
  -----------------------------------------------------------------------
  
  
  -----------------------------------------------------------------------
  Parsing geometry.in (first pass over file, find array dimensions only).
  The contents of geometry.in will be repeated verbatim below
  unless switched off by setting 'verbatim_writeout .false.' .
  in the first line of geometry.in .
  -----------------------------------------------------------------------
  
  #=======================================================
  # FHI-aims file: ./geometry.in
  # Created using the Atomic Simulation Environment (ASE)
  # Sun Jun  8 01:57:57 2025
  #=======================================================
  lattice_vector 9.1913999999999998 0.0000000000000000 0.0000000000000000
  lattice_vector 0.0000000000000000 9.1913999999999998 0.0000000000000000
  lattice_vector 0.0000000000000000 0.0000000000000000 14.7944999999999993
  atom_frac 0.2499999534792369 0.2500000235329621 0.1001013332788437 Ti
  atom_frac 0.0013991229621984 -0.0013990978713055 0.0000000617343817 Ti
  atom_frac 0.0971621320221219 0.4032562682814250 0.1002040803704024 O
  atom_frac 0.4028376990692715 0.0967438193370972 0.1002040454040200 O
  atom_frac 0.1530444985911107 0.1530027399466387 -0.0000000287560684 O
  atom_frac 0.3469554605175308 0.3469972716582959 -0.0000000309631591 O
  atom_frac 0.2499998807080392 0.2500003533623408 0.3002989822732169 Ti
  atom_frac -0.0014799458573166 0.0014800018852975 0.2000930621251919 Ti
  atom_frac 0.0981753328892949 0.4046278963630700 0.3007703860885078 O
  atom_frac 0.4018246659958125 0.0953721554655613 0.3007703931078407 O
  atom_frac 0.1524809379047843 0.1535879905565047 0.2001712455942799 O
  atom_frac 0.3475190110663156 0.3464120891052577 0.2001712052671898 O
  atom_frac 0.2499999909955230 0.2500000910449794 0.4999999159799906 Ti
  atom_frac 0.0030557745736225 -0.0030558325598961 0.3999355900283937 Ti
  atom_frac 0.0966137344017374 0.4023814657580772 0.4999999835823535 O
  atom_frac 0.4033863708866843 0.0976185500103084 0.5000000138805062 O
  atom_frac 0.1535047307079065 0.1526869854317816 0.4000486014452533 O
  atom_frac 0.3464952424960174 0.3473129728776344 0.4000486656298899 O
  atom_frac 0.2500000273936051 0.2499998126812407 0.6997008417314013 Ti
  atom_frac 0.0030553955071695 -0.0030556176792476 0.6000643617303916 Ti
  atom_frac 0.0981755024336134 0.4046279234682285 0.6992296137097357 O
  atom_frac 0.4018247903699078 0.0953720785951877 0.6992296220359323 O
  atom_frac 0.1535047797428228 0.1526869718606070 0.5999513083640575 O
  atom_frac 0.3464953770648289 0.3473130380517719 0.5999512795335066 O
  atom_frac 0.2499999866300988 0.2499998318495125 0.8998985593822283 Ti
  atom_frac -0.0014801287647584 0.0014800586382979 0.7999069571919358 Ti
  atom_frac 0.0971622580877579 0.4032561929291515 0.8997959709680305 O
  atom_frac 0.4028378871782815 0.0967437532000139 0.8997959702265842 O
  atom_frac 0.1524809352771230 0.1535879548745151 0.7998287620685369 O
  atom_frac 0.3475190869365357 0.3464120361307467 0.7998286732274432 O
  atom_frac 0.2499998514031795 0.7500001245316446 0.1010441166710312 Ti
  atom_frac 0.0009370939831993 0.5009370219868438 0.0000000345298873 Ti
  atom_frac 0.0969552293996803 0.9030473287633797 0.1000831457766355 O
  atom_frac 0.4030448444613950 0.5969526562224524 0.1000830317170285 O
  atom_frac 0.1530279063938426 0.6530301958363534 0.0000000126581947 O
  atom_frac 0.3469722994516444 0.8469696450905433 -0.0000000132742746 O
  atom_frac 0.2499998786315138 0.7500000665333162 0.3032665090105944 Ti
  atom_frac 0.0012375600896898 0.5012378270344737 0.2002435250924841 Ti
  atom_frac 0.0975627265177493 0.9024396275207009 0.2995595346108384 O
  atom_frac 0.4024375132092283 0.5975601971212297 0.2995595955657753 O
  atom_frac 0.1530446629217720 0.6530471640619105 0.2007219123726181 O
  atom_frac 0.3469553180289680 0.8469528905093485 0.2007219279200407 O
  atom_frac 0.2500000440689488 0.7500000910092807 0.5000000565169861 Ni
  atom_frac 0.0007416632836103 0.5007417932567046 0.4009122360302966 Ti
  atom_frac 0.1031703336649785 0.8968316659718194 0.5000000529731317 O
  atom_frac 0.3968296485063682 0.6031684304154094 0.4999999639044438 O
  atom_frac 0.1552064949711603 0.6552084929999826 0.4035171566691387 O
  atom_frac 0.3447934847067175 0.8447914128428364 0.4035171122994175 O
  atom_frac 0.2499997470723414 0.7500000546144824 0.6967336036703908 Ti
  atom_frac 0.0007417408772583 0.5007416396502690 0.5990878013001140 Ti
  atom_frac 0.0975626033089726 0.9024397916989420 0.7004404796665745 O
  atom_frac 0.4024374255924685 0.5975602860639183 0.7004404368600428 O
  atom_frac 0.1552065871125666 0.6552086160905044 0.5964828099283862 O
  atom_frac 0.3447935237989744 0.8447914289551578 0.5964828656131684 O
  atom_frac 0.2499997264794980 0.7500002355087271 0.8989557603208610 Ti
  atom_frac 0.0012376263655199 0.5012373529205955 0.7997564806814346 Ti
  atom_frac 0.0969551798355883 0.9030473957875954 0.8999168571000852 O
  atom_frac 0.4030447453550466 0.5969526794628282 0.8999169337508304 O
  atom_frac 0.1530446202422058 0.6530470396792936 0.7992780871204351 O
  atom_frac 0.3469554408187586 0.8469528514498099 0.7992781215398288 O
  atom_frac 0.7499999909937776 0.2499999597600571 0.0998925620813979 Ti
  atom_frac 0.4990630592395111 -0.0009371193752139 -0.0000000894915551 Ti
  atom_frac 0.5970253798595362 0.4029771066547336 0.1001080964019905 O
  atom_frac 0.9029747670741082 0.0970227503424526 0.1001080957856665 O
  atom_frac 0.6530660122686105 0.1530684081404725 -0.0000000151929441 O
  atom_frac 0.8469340698900445 0.3469314802069920 0.0000000323002528 O
  atom_frac 0.7499999855421871 0.2500000345288258 0.2999874464873405 Ti
  atom_frac 0.4987620399339291 -0.0012376356261554 0.2002434997948261 Ti
  atom_frac 0.5962162751826321 0.4037862507833352 0.3008564617160033 O
  atom_frac 0.9037837849061343 0.0962137264612090 0.3008564870666738 O
  atom_frac 0.6529685896539855 0.1529709416310412 0.2006939912592777 O
  atom_frac 0.8470314077842527 0.3470290100683769 0.2006940193659024 O
  atom_frac 0.7499997382383730 0.2500003756091785 0.4999999886319490 Ti
  atom_frac 0.4992583281004674 -0.0007416502479191 0.4009122220690353 Ti
  atom_frac 0.5935040347441949 0.4064984816259847 0.5000000478055944 O
  atom_frac 0.9064961280140277 0.0935015078379069 0.4999999328692309 O
  atom_frac 0.6529167150571525 0.1529190735666595 0.4006466310579367 O
  atom_frac 0.8470834775811985 0.3470808754424870 0.4006466166546270 O
  atom_frac 0.7499994835484233 0.2500001740483805 0.7000124327349827 Ti
  atom_frac 0.4992581902602464 -0.0007419611444328 0.5990877334162495 Ti
  atom_frac 0.5962162885700856 0.4037862416107182 0.6991435124706288 O
  atom_frac 0.9037838236509917 0.0962136449851426 0.6991434965783823 O
  atom_frac 0.6529167518649732 0.1529190564000104 0.5993534099340846 O
  atom_frac 0.8470835227041928 0.3470808436597937 0.5993534096749835 O
  atom_frac 0.7499999372050362 0.2500001422045133 0.9001073707715870 Ti
  atom_frac 0.4987623469329365 -0.0012378463591806 0.7997564215998059 Ti
  atom_frac 0.5970253632205750 0.4029771613002689 0.8998918542207248 O
  atom_frac 0.9029747831829540 0.0970227210448216 0.8998919386169550 O
  atom_frac 0.6529686166733917 0.1529710228293540 0.7993059976336464 O
  atom_frac 0.8470315644385146 0.3470289340264255 0.7993060129351538 O
  atom_frac 0.7499998425389184 0.7500000893244325 0.1001013508843149 Ti
  atom_frac 0.4986008767453007 0.5013988282378639 0.0000000442254179 Ti
  atom_frac 0.5967462717301636 0.9028402899172810 0.1002040553559373 O
  atom_frac 0.9032538262172655 0.5971596224845922 0.1002040566145455 O
  atom_frac 0.6530003081305829 0.6530471028878064 0.0000000331212033 O
  atom_frac 0.8469998396401234 0.8469529767480072 0.0000000571825952 O
  atom_frac 0.7499997881039173 0.7500001203280264 0.3002989638246693 Ti
  atom_frac 0.5014797277353790 0.4985202489221821 0.2000930052242872 Ti
  atom_frac 0.5953743865293262 0.9018270122254284 0.3007704260622656 O
  atom_frac 0.9046255686569483 0.5981730298196323 0.3007704348932278 O
  atom_frac 0.6535854720825662 0.6524834520219833 0.2001712724033550 O
  atom_frac 0.8464145051619905 0.8475166533427382 0.2001712142170207 O
  atom_frac 0.7500000441319868 0.7500000057213846 0.4999999141545956 Ti
  atom_frac 0.4969444590504497 0.5030556669247130 0.3999356090899248 Ti
  atom_frac 0.5976210305151078 0.9033887855651603 0.5000000019448022 O
  atom_frac 0.9023791546643882 0.5966112055819255 0.5000000480742811 O
  atom_frac 0.6526848247736682 0.6535071113083706 0.4000486841977912 O
  atom_frac 0.8473152832293122 0.8464928443800579 0.4000486352835754 O
  atom_frac 0.7500000774528294 0.7499998010887705 0.6997009834785036 Ti
  atom_frac 0.4969442035688253 0.5030559605452485 0.6000645146608095 Ti
  atom_frac 0.5953745399710276 0.9018269817525658 0.6992295767661107 O
  atom_frac 0.9046256275467774 0.5981728523585387 0.6992296520452482 O
  atom_frac 0.6526848041494033 0.6535071774616333 0.5999514109254884 O
  atom_frac 0.8473153212314265 0.8464928764883370 0.5999514026893458 O
  atom_frac 0.7500001142744155 0.7499999031252008 0.8998986577709456 Ti
  atom_frac 0.5014794460452650 0.4985200674790230 0.7999071047208246 Ti
  atom_frac 0.5967462800711514 0.9028403304328678 0.8997960134050998 O
  atom_frac 0.9032537705398801 0.5971596543394746 0.8997959925844490 O
  atom_frac 0.6535854861353610 0.6524832465469894 0.7998288452185347 O
  atom_frac 0.8464146512400622 0.8475166082471185 0.7998288468932053 O
  
  -----------------------------------------------------------------------
  Completed first pass over input file geometry.in .
  -----------------------------------------------------------------------
  

  Basic array size parameters:
  | Number of species                 :        3
  | Number of atoms                   :      120
  | Number of lattice vectors         :        3
  | Max. basis fn. angular momentum   :        3
  | Max. atomic/ionic basis occupied n:        4
  | Max. number of basis fn. types    :        3
  | Max. radial fns per species/type  :        7
  | Max. logarithmic grid size        :     1403
  | Max. radial integration grid size :       52
  | Max. angular integration grid size:      302
  | Max. angular grid division number :        8
  | Radial grid for Hartree potential :     1403
  | Number of spin channels           :        1
  | Max. number of (n,l) shells per species with '+U' treatment:        1

------------------------------------------------------------
          Reading file control.in.
------------------------------------------------------------
  Forces will be computed.
 * Warning - a code part requested a citation which was not known
 * please add it to init_citations.f90.
 * Missing reference tag: m-BEEF

  XC: Using the m-BEEF functional.
  Using libxc - Initializing
  Libxc version: 6.1.0


  ** PLEASE ** be careful using LibXC. Whilst most of the LDA, GGA and MGGA functionals,
  and hybrid variations therein, should be stable (though we always recommend testing!),
  there are several fancy functionals with e.g. range-separation, like HSE03/HSE06/LC-PBEh,
  and also MGGA functionals that depend on the laplacian of the density, like BR89,
  that are not fully implemented due to the infrastrucutre for these functionals being incomplete or non-generic.
  If you want to use these functionals please contact the development team and we will work on them with you!

  You have selected libxc functional MGGA_X_MBEEF (249)
    - Description: mBEEF exchange
    - Type: MGGA(Exchange)
    - Reference to Literature:
      [1] J. Wellendorff, K. T. Lundgaard, K. W. Jacobsen, and T. Bligaard.,  J. Chem. Phys. 140, 144107 (2014)

  You have selected libxc functional GGA_C_PBE_SOL (133)
    - Description: Perdew, Burke & Ernzerhof SOL
    - Type: GGA(Correlation)
    - Reference to Literature:
      [1] J. P. Perdew, A. Ruzsinszky, G. I. Csonka, O. A. Vydrov, G. E. Scuseria, L. A. Constantin, X. Zhou, and K. Burke.,  Phys. Rev. Lett. 100, 136406 (2008)

  Switching on meta-ggas
  Found k-point grid:         3         3         2
  Scalar relativistic treatment of kinetic energy: on-site free-atom approximation to ZORA.
  Occupation type: Gaussian broadening, width =   0.100000E+00 eV.
  Fixing petukhov mixing factor to   1.000000000000
  hydrogenic basis funktions also used for DFT+U reference states
  Reading DFT+U occupation matrix, from file
  Reading DFT+U occupation matrix, from file
  DFT+U occupation matrix, is again calculated if total energy is converged within   0.001000000000
  Convergence accuracy of total energy:  0.1000E-05
  Convergence accuracy of sum of eigenvalues:  0.1000E-02
  Convergence accuracy of self-consistent charge density:  0.1000E-05
  Convergence accuracy of forces:  0.1000E-03
 
  Reading configuration options for species Ti                  .
  | Found nuclear charge :  22.0000
  | Found atomic mass :    47.8670000000000      amu
  | Found l_max for Hartree potential  :   4
  | Found cutoff potl. onset [A], width [A], scale factor :    3.50000    1.50000    1.00000
  | Threshold for basis-dependent cutoff potential is   0.100000E-03
  | Found data for basic radial integration grid :    48 points, outermost radius =    5.000 A
  | Found multiplier for basic radial grid :   1
  | Found angular grid specification: user-specified.
  | Specified grid contains     5 separate shells.
  | Check grid settings after all constraints further below.
  | Found free-atom valence shell :  4 s   2.000
  | Found free-atom valence shell :  3 p   6.000
  | Found free-atom valence shell :  3 d   2.000
  | Found free-ion valence shell :  4 s   1.000
  | Found free-ion valence shell :  3 p   6.000
  | Found free-ion valence shell :  3 d   1.000
  | Found hydrogenic basis function :  4 f   8.000
  | Found hydrogenic basis function :  3 d   2.700
  | Found ionic basis function :  4 p , default cutoff radius.
  | Found ionic basis function :  4 s , default cutoff radius.
  | Found request for '+U' treatment for  3 d shell, U =     2.575000 eV.
  | Found coefficents for linear combination of hubbard projectors 
  Species Ti                  : Missing cutoff potential type.
  Defaulting to exp(1/x)/(1-x)^2 type cutoff potential.
  Species Ti: No 'logarithmic' tag. Using default grid for free atom:
  | Default logarithmic grid data [bohr] : 0.1000E-03 0.1000E+03 0.1012E+01
  | Will include ionic basis functions of  2.0-fold positive Ti                   ion.
  Species Ti: On-site basis accuracy parameter (for Gram-Schmidt orthonormalisation) not specified.
  Using default value basis_acc =  0.1000000E-03.
  Species Ti                  : Using default innermost maximum threshold i_radial=  2 for radial functions.
  Species Ti                  : Default cutoff onset for free atom density etc. : 0.35000000E+01 AA.
  Species Ti                  : Basic radial grid will be enhanced according to radial_multiplier =   1, to contain    48 grid points.
 
  Reading configuration options for species O                   .
  | Found nuclear charge :   8.0000
  | Found atomic mass :    15.9994000000000      amu
  | Found l_max for Hartree potential  :   4
  | Found cutoff potl. onset [A], width [A], scale factor :    3.50000    1.50000    1.00000
  | Threshold for basis-dependent cutoff potential is   0.100000E-03
  | Found data for basic radial integration grid :    36 points, outermost radius =    5.000 A
  | Found multiplier for basic radial grid :   1
  | Found angular grid specification: user-specified.
  | Specified grid contains     5 separate shells.
  | Check grid settings after all constraints further below.
  | Found free-atom valence shell :  2 s   2.000
  | Found free-atom valence shell :  2 p   4.000
  | Found free-ion valence shell :  2 s   1.000
  | Found free-ion valence shell :  2 p   3.000
  | Found hydrogenic basis function :  2 p   1.800
  | Found hydrogenic basis function :  3 d   7.600
  | Found hydrogenic basis function :  3 s   6.400
  Species O                   : Missing cutoff potential type.
  Defaulting to exp(1/x)/(1-x)^2 type cutoff potential.
  Species O : No 'logarithmic' tag. Using default grid for free atom:
  | Default logarithmic grid data [bohr] : 0.1000E-03 0.1000E+03 0.1012E+01
  Species O : On-site basis accuracy parameter (for Gram-Schmidt orthonormalisation) not specified.
  Using default value basis_acc =  0.1000000E-03.
  Species O                   : Using default innermost maximum threshold i_radial=  2 for radial functions.
  Species O                   : Default cutoff onset for free atom density etc. : 0.35000000E+01 AA.
  Species O                   : Basic radial grid will be enhanced according to radial_multiplier =   1, to contain    36 grid points.
 
  Reading configuration options for species Ni                  .
  | Found nuclear charge :  28.0000
  | Found atomic mass :    58.6934000000000      amu
  | Found l_max for Hartree potential  :   4
  | Found cutoff potl. onset [A], width [A], scale factor :    3.50000    1.50000    1.00000
  | Threshold for basis-dependent cutoff potential is   0.100000E-03
  | Found data for basic radial integration grid :    52 points, outermost radius =    5.000 A
  | Found multiplier for basic radial grid :   1
  | Found angular grid specification: user-specified.
  | Specified grid contains     5 separate shells.
  | Check grid settings after all constraints further below.
  | Found free-atom valence shell :  4 s   2.000
  | Found free-atom valence shell :  3 p   6.000
  | Found free-atom valence shell :  3 d   8.000
  | Found free-ion valence shell :  4 s   1.000
  | Found free-ion valence shell :  3 p   6.000
  | Found free-ion valence shell :  3 d   7.000
  | Found hydrogenic basis function :  3 p   6.000
  | Found hydrogenic basis function :  4 f   9.000
  | Found hydrogenic basis function :  3 d   5.200
  | Found ionic basis function :  4 s , default cutoff radius.
  | Found ionic basis function :  4 p , default cutoff radius.
  | Found request for '+U' treatment for  3 d shell, U =     0.000000 eV.
  | Found coefficents for linear combination of hubbard projectors 
  Species Ni                  : Missing cutoff potential type.
  Defaulting to exp(1/x)/(1-x)^2 type cutoff potential.
  Species Ni: No 'logarithmic' tag. Using default grid for free atom:
  | Default logarithmic grid data [bohr] : 0.1000E-03 0.1000E+03 0.1012E+01
  | Will include ionic basis functions of  2.0-fold positive Ni                   ion.
  Species Ni: On-site basis accuracy parameter (for Gram-Schmidt orthonormalisation) not specified.
  Using default value basis_acc =  0.1000000E-03.
  Species Ni                  : Using default innermost maximum threshold i_radial=  2 for radial functions.
  Species Ni                  : Default cutoff onset for free atom density etc. : 0.35000000E+01 AA.
  Species Ni                  : Basic radial grid will be enhanced according to radial_multiplier =   1, to contain    52 grid points.
 
  Finished reading input file 'control.in'.
 
------------------------------------------------------------


------------------------------------------------------------
          Reading geometry description geometry.in.
------------------------------------------------------------
  | The smallest distance between any two atoms is         1.88567041 AA.
  | The first atom of this pair is atom number                     43 .
  | The second atom of this pair is atom number                    53 .
  | Wigner-Seitz cell of the first atom image           0     0     0 .
  | (The Wigner-Seitz cell of the second atom is 0 0 0  by definition.)

  Symmetry information by spglib:
  | Precision set to  0.1E-04
  | Number of Operations  : 1
  | Space group           : 1
  | International         : P1
  | Schoenflies           : C1^1
  Input structure read successfully.
  The structure contains      120 atoms,  and a total of       1526.000 electrons.

  Input geometry:
  | Unit cell:
  |        9.19140000        0.00000000        0.00000000
  |        0.00000000        9.19140000        0.00000000
  |        0.00000000        0.00000000       14.79450000
  | Atomic structure:
  |       Atom                x [A]            y [A]            z [A]
  |    1: Species Ti            2.29784957        2.29785022        1.48094918
  |    2: Species Ti            0.01285990       -0.01285967        0.00000091
  |    3: Species O             0.89305602        3.70648966        1.48246927
  |    4: Species O             3.70264243        0.88921114        1.48246875
  |    5: Species O             1.40669320        1.40630938       -0.00000043
  |    6: Species O             3.18900642        3.18939072       -0.00000046
  |    7: Species Ti            2.29784890        2.29785325        4.44277329
  |    8: Species Ti           -0.01360277        0.01360329        2.96027681
  |    9: Species O             0.90236875        3.71909685        4.44974748
  |   10: Species O             3.69333124        0.87660363        4.44974758
  |   11: Species O             1.40151329        1.41168866        2.96143349
  |   12: Species O             3.19418624        3.18401208        2.96143290
  |   13: Species Ti            2.29784992        2.29785084        7.39724876
  |   14: Species Ti            0.02808685       -0.02808738        5.91684709
  |   15: Species O             0.88801548        3.69844900        7.39724976
  |   16: Species O             3.70768549        0.89725114        7.39725021
  |   17: Species O             1.41092338        1.40340716        5.91851903
  |   18: Species O             3.18477637        3.19229246        5.91851998
  |   19: Species Ti            2.29785025        2.29784828       10.35172410
  |   20: Species Ti            0.02808336       -0.02808540        8.87765220
  |   21: Species O             0.90237031        3.71909710       10.34475252
  |   22: Species O             3.69333238        0.87660292       10.34475264
  |   23: Species O             1.41092383        1.40340703        8.87597963
  |   24: Species O             3.18477761        3.19229306        8.87597921
  |   25: Species Ti            2.29784988        2.29784845       13.31354924
  |   26: Species Ti           -0.01360446        0.01360381       11.83422348
  |   27: Species O             0.89305718        3.70648897       13.31203149
  |   28: Species O             3.70264416        0.88921053       13.31203148
  |   29: Species O             1.40151327        1.41168833       11.83306662
  |   30: Species O             3.19418694        3.18401159       11.83306531
  |   31: Species Ti            2.29784863        6.89355114        1.49489718
  |   32: Species Ti            0.00861321        4.60431254        0.00000051
  |   33: Species O             0.89115430        8.30026922        1.48068010
  |   34: Species O             3.70454638        5.48683064        1.48067841
  |   35: Species O             1.40654070        6.00226174        0.00000019
  |   36: Species O             3.18916119        7.78483680       -0.00000020
  |   37: Species Ti            2.29784888        6.89355061        4.48667637
  |   38: Species Ti            0.01137491        4.60707736        2.96250283
  |   39: Species O             0.89673804        8.29468359        4.43183353
  |   40: Species O             3.69896416        5.49241480        4.43183444
  |   41: Species O             1.40669471        6.00241770        2.96958033
  |   42: Species O             3.18900511        7.78468280        2.96958056
  |   43: Species Ni            2.29785041        6.89355084        7.39725084
  |   44: Species Ti            0.00681692        4.60251812        5.93129608
  |   45: Species O             0.94827980        8.24313857        7.39725078
  |   46: Species O             3.64742003        5.54396231        7.39724947
  |   47: Species O             1.42656498        6.02228334        5.96983457
  |   48: Species O             3.16913484        7.76481579        5.96983392
  |   49: Species Ti            2.29784768        6.89355050       10.30782530
  |   50: Species Ti            0.00681764        4.60251671        8.86320448
  |   51: Species O             0.89673691        8.29468510       10.36266668
  |   52: Species O             3.69896335        5.49241561       10.36266604
  |   53: Species O             1.42656582        6.02228447        8.82466493
  |   54: Species O             3.16913519        7.76481594        8.82466576
  |   55: Species Ti            2.29784749        6.89355216       13.29960100
  |   56: Species Ti            0.01137552        4.60707301       11.83199725
  |   57: Species O             0.89115384        8.30026983       13.31381994
  |   58: Species O             3.70454547        5.48683086       13.31382108
  |   59: Species O             1.40669432        6.00241656       11.82491966
  |   60: Species O             3.18900624        7.78468244       11.82492017
  |   61: Species Ti            6.89354992        2.29784963        1.47786051
  |   62: Species Ti            4.58708820       -0.00861344       -0.00000132
  |   63: Species O             5.48749908        3.70392378        1.48104923
  |   64: Species O             8.29960227        0.89177491        1.48104922
  |   65: Species O             6.00259095        1.40691297       -0.00000022
  |   66: Species O             7.78450981        3.18878601        0.00000048
  |   67: Species Ti            6.89354987        2.29785032        4.43816428
  |   68: Species Ti            4.58432141       -0.01137560        2.96250246
  |   69: Species O             5.48006227        3.71136095        4.45102092
  |   70: Species O             8.30703828        0.88433885        4.45102130
  |   71: Species O             6.00169549        1.40601711        2.96916725
  |   72: Species O             7.78540448        3.18968244        2.96916767
  |   73: Species Ti            6.89354759        2.29785345        7.39724983
  |   74: Species Ti            4.58888300       -0.00681680        5.93129587
  |   75: Species O             5.45513298        3.73629014        7.39725071
  |   76: Species O             8.33196851        0.85940976        7.39724901
  |   77: Species O             6.00121869        1.40554037        5.92736658
  |   78: Species O             7.78588308        3.19015916        5.92736637
  |   79: Species Ti            6.89354525        2.29785160       10.35633394
  |   80: Species Ti            4.58888173       -0.00681966        8.86320347
  |   81: Species O             5.48006239        3.71136086       10.34347870
  |   82: Species O             8.30703864        0.88433810       10.34347846
  |   83: Species O             6.00121903        1.40554021        8.86713402
  |   84: Species O             7.78588349        3.19015887        8.86713402
  |   85: Species Ti            6.89354942        2.29785131       13.31663850
  |   86: Species Ti            4.58432424       -0.01137754       11.83199638
  |   87: Species O             5.48749892        3.70392428       13.31345004
  |   88: Species O             8.29960242        0.89177464       13.31345129
  |   89: Species O             6.00169574        1.40601786       11.82533258
  |   90: Species O             7.78540592        3.18968174       11.82533281
  |   91: Species Ti            6.89354855        6.89355082        1.48094944
  |   92: Species Ti            4.58284010        4.60855719        0.00000065
  |   93: Species O             5.48493368        8.29836624        1.48246890
  |   94: Species O             8.30216722        5.48873295        1.48246892
  |   95: Species O             6.00198703        6.00241714        0.00000049
  |   96: Species O             7.78511433        7.78468359        0.00000085
  |   97: Species Ti            6.89354805        6.89355111        4.44277302
  |   98: Species Ti            4.60930077        4.58209902        2.96027597
  |   99: Species O             5.47232414        8.28905280        4.44974807
  |  100: Species O             8.31477545        5.49804759        4.44974820
  |  101: Species O             6.00736551        5.99723640        2.96143389
  |  102: Species O             7.77973428        7.78986457        2.96143303
  |  103: Species Ti            6.89355041        6.89355005        7.39724873
  |  104: Species Ti            4.56761530        4.62378586        5.91684737
  |  105: Species O             5.49297394        8.30340768        7.39725003
  |  106: Species O             8.29412776        5.48369223        7.39725071
  |  107: Species O             5.99908730        6.00664526        5.91852026
  |  108: Species O             7.78801369        7.78045433        5.91851953
  |  109: Species Ti            6.89355071        6.89354817       10.35172620
  |  110: Species Ti            4.56761295        4.62378856        8.87765446
  |  111: Species O             5.47232555        8.28905252       10.34475197
  |  112: Species O             8.31477599        5.49804596       10.34475309
  |  113: Species O             5.99908711        6.00664587        8.87598115
  |  114: Species O             7.78801404        7.78045462        8.87598103
  |  115: Species Ti            6.89355105        6.89354911       13.31355069
  |  116: Species Ti            4.60929818        4.58209735       11.83422566
  |  117: Species O             5.48493376        8.29836661       13.31203212
  |  118: Species O             8.30216671        5.48873325       13.31203181
  |  119: Species O             6.00736564        5.99723451       11.83306785
  |  120: Species O             7.77973563        7.78986415       11.83306788

  Lattice parameters for 3D lattice (in Angstroms) :     9.191400    9.191400   14.794500
  Angle(s) between unit vectors (in degrees)       :    90.000000   90.000000   90.000000


  Quantities derived from the lattice vectors (in Angstrom^-1):
  | Reciprocal lattice vector 1:  0.683594  0.000000  0.000000
  | Reciprocal lattice vector 2:  0.000000  0.683594  0.000000
  | Reciprocal lattice vector 3:  0.000000  0.000000  0.424697
  | Unit cell volume                               :   0.124987E+04  Angstrom^3

  Fractional coordinates:
                         L1                L2                L3
       atom_frac         0.24999995        0.25000002        0.10010133  Ti
       atom_frac         0.00139912       -0.00139910        0.00000006  Ti
       atom_frac         0.09716213        0.40325627        0.10020408  O
       atom_frac         0.40283770        0.09674382        0.10020405  O
       atom_frac         0.15304450        0.15300274       -0.00000003  O
       atom_frac         0.34695546        0.34699727       -0.00000003  O
       atom_frac         0.24999988        0.25000035        0.30029898  Ti
       atom_frac        -0.00147995        0.00148000        0.20009306  Ti
       atom_frac         0.09817533        0.40462790        0.30077039  O
       atom_frac         0.40182467        0.09537216        0.30077039  O
       atom_frac         0.15248094        0.15358799        0.20017125  O
       atom_frac         0.34751901        0.34641209        0.20017121  O
       atom_frac         0.24999999        0.25000009        0.49999992  Ti
       atom_frac         0.00305577       -0.00305583        0.39993559  Ti
       atom_frac         0.09661373        0.40238147        0.49999998  O
       atom_frac         0.40338637        0.09761855        0.50000001  O
       atom_frac         0.15350473        0.15268699        0.40004860  O
       atom_frac         0.34649524        0.34731297        0.40004867  O
       atom_frac         0.25000003        0.24999981        0.69970084  Ti
       atom_frac         0.00305540       -0.00305562        0.60006436  Ti
       atom_frac         0.09817550        0.40462792        0.69922961  O
       atom_frac         0.40182479        0.09537208        0.69922962  O
       atom_frac         0.15350478        0.15268697        0.59995131  O
       atom_frac         0.34649538        0.34731304        0.59995128  O
       atom_frac         0.24999999        0.24999983        0.89989856  Ti
       atom_frac        -0.00148013        0.00148006        0.79990696  Ti
       atom_frac         0.09716226        0.40325619        0.89979597  O
       atom_frac         0.40283789        0.09674375        0.89979597  O
       atom_frac         0.15248094        0.15358795        0.79982876  O
       atom_frac         0.34751909        0.34641204        0.79982867  O
       atom_frac         0.24999985        0.75000012        0.10104412  Ti
       atom_frac         0.00093709        0.50093702        0.00000003  Ti
       atom_frac         0.09695523        0.90304733        0.10008315  O
       atom_frac         0.40304484        0.59695266        0.10008303  O
       atom_frac         0.15302791        0.65303020        0.00000001  O
       atom_frac         0.34697230        0.84696965       -0.00000001  O
       atom_frac         0.24999988        0.75000007        0.30326651  Ti
       atom_frac         0.00123756        0.50123783        0.20024353  Ti
       atom_frac         0.09756273        0.90243963        0.29955953  O
       atom_frac         0.40243751        0.59756020        0.29955960  O
       atom_frac         0.15304466        0.65304716        0.20072191  O
       atom_frac         0.34695532        0.84695289        0.20072193  O
       atom_frac         0.25000004        0.75000009        0.50000006  Ni
       atom_frac         0.00074166        0.50074179        0.40091224  Ti
       atom_frac         0.10317033        0.89683167        0.50000005  O
       atom_frac         0.39682965        0.60316843        0.49999996  O
       atom_frac         0.15520649        0.65520849        0.40351716  O
       atom_frac         0.34479348        0.84479141        0.40351711  O
       atom_frac         0.24999975        0.75000005        0.69673360  Ti
       atom_frac         0.00074174        0.50074164        0.59908780  Ti
       atom_frac         0.09756260        0.90243979        0.70044048  O
       atom_frac         0.40243743        0.59756029        0.70044044  O
       atom_frac         0.15520659        0.65520862        0.59648281  O
       atom_frac         0.34479352        0.84479143        0.59648287  O
       atom_frac         0.24999973        0.75000024        0.89895576  Ti
       atom_frac         0.00123763        0.50123735        0.79975648  Ti
       atom_frac         0.09695518        0.90304740        0.89991686  O
       atom_frac         0.40304475        0.59695268        0.89991693  O
       atom_frac         0.15304462        0.65304704        0.79927809  O
       atom_frac         0.34695544        0.84695285        0.79927812  O
       atom_frac         0.74999999        0.24999996        0.09989256  Ti
       atom_frac         0.49906306       -0.00093712       -0.00000009  Ti
       atom_frac         0.59702538        0.40297711        0.10010810  O
       atom_frac         0.90297477        0.09702275        0.10010810  O
       atom_frac         0.65306601        0.15306841       -0.00000002  O
       atom_frac         0.84693407        0.34693148        0.00000003  O
       atom_frac         0.74999999        0.25000003        0.29998745  Ti
       atom_frac         0.49876204       -0.00123764        0.20024350  Ti
       atom_frac         0.59621628        0.40378625        0.30085646  O
       atom_frac         0.90378378        0.09621373        0.30085649  O
       atom_frac         0.65296859        0.15297094        0.20069399  O
       atom_frac         0.84703141        0.34702901        0.20069402  O
       atom_frac         0.74999974        0.25000038        0.49999999  Ti
       atom_frac         0.49925833       -0.00074165        0.40091222  Ti
       atom_frac         0.59350403        0.40649848        0.50000005  O
       atom_frac         0.90649613        0.09350151        0.49999993  O
       atom_frac         0.65291672        0.15291907        0.40064663  O
       atom_frac         0.84708348        0.34708088        0.40064662  O
       atom_frac         0.74999948        0.25000017        0.70001243  Ti
       atom_frac         0.49925819       -0.00074196        0.59908773  Ti
       atom_frac         0.59621629        0.40378624        0.69914351  O
       atom_frac         0.90378382        0.09621364        0.69914350  O
       atom_frac         0.65291675        0.15291906        0.59935341  O
       atom_frac         0.84708352        0.34708084        0.59935341  O
       atom_frac         0.74999994        0.25000014        0.90010737  Ti
       atom_frac         0.49876235       -0.00123785        0.79975642  Ti
       atom_frac         0.59702536        0.40297716        0.89989185  O
       atom_frac         0.90297478        0.09702272        0.89989194  O
       atom_frac         0.65296862        0.15297102        0.79930600  O
       atom_frac         0.84703156        0.34702893        0.79930601  O
       atom_frac         0.74999984        0.75000009        0.10010135  Ti
       atom_frac         0.49860088        0.50139883        0.00000004  Ti
       atom_frac         0.59674627        0.90284029        0.10020406  O
       atom_frac         0.90325383        0.59715962        0.10020406  O
       atom_frac         0.65300031        0.65304710        0.00000003  O
       atom_frac         0.84699984        0.84695298        0.00000006  O
       atom_frac         0.74999979        0.75000012        0.30029896  Ti
       atom_frac         0.50147973        0.49852025        0.20009301  Ti
       atom_frac         0.59537439        0.90182701        0.30077043  O
       atom_frac         0.90462557        0.59817303        0.30077043  O
       atom_frac         0.65358547        0.65248345        0.20017127  O
       atom_frac         0.84641451        0.84751665        0.20017121  O
       atom_frac         0.75000004        0.75000001        0.49999991  Ti
       atom_frac         0.49694446        0.50305567        0.39993561  Ti
       atom_frac         0.59762103        0.90338879        0.50000000  O
       atom_frac         0.90237915        0.59661121        0.50000005  O
       atom_frac         0.65268482        0.65350711        0.40004868  O
       atom_frac         0.84731528        0.84649284        0.40004864  O
       atom_frac         0.75000008        0.74999980        0.69970098  Ti
       atom_frac         0.49694420        0.50305596        0.60006451  Ti
       atom_frac         0.59537454        0.90182698        0.69922958  O
       atom_frac         0.90462563        0.59817285        0.69922965  O
       atom_frac         0.65268480        0.65350718        0.59995141  O
       atom_frac         0.84731532        0.84649288        0.59995140  O
       atom_frac         0.75000011        0.74999990        0.89989866  Ti
       atom_frac         0.50147945        0.49852007        0.79990710  Ti
       atom_frac         0.59674628        0.90284033        0.89979601  O
       atom_frac         0.90325377        0.59715965        0.89979599  O
       atom_frac         0.65358549        0.65248325        0.79982885  O
       atom_frac         0.84641465        0.84751661        0.79982885  O

  Slab Identifier: This seems to be a bulk system.
 
  Finished reading input file 'geometry.in'.
 

 
  Consistency checks for stacksize environment parameter are next.
 
  | Maximum stacksize for task 0: unlimited
  | Maximum stacksize for task 1: unlimited
  | Maximum stacksize for task 2: unlimited
  | Maximum stacksize for task 3: unlimited
  | Maximum stacksize for task 4: unlimited
  | Maximum stacksize for task 5: unlimited
  | Maximum stacksize for task 6: unlimited
  | Maximum stacksize for task 7: unlimited
  | Maximum stacksize for task 8: unlimited
  | Maximum stacksize for task 9: unlimited
  | Maximum stacksize for task 10: unlimited
  | Maximum stacksize for task 11: unlimited
  | Maximum stacksize for task 12: unlimited
  | Maximum stacksize for task 13: unlimited
  | Maximum stacksize for task 14: unlimited
  | Maximum stacksize for task 15: unlimited
  | Maximum stacksize for task 16: unlimited
  | Maximum stacksize for task 17: unlimited
  | Maximum stacksize for task 18: unlimited
  | Maximum stacksize for task 19: unlimited
  | Maximum stacksize for task 20: unlimited
  | Maximum stacksize for task 21: unlimited
  | Maximum stacksize for task 22: unlimited
  | Maximum stacksize for task 23: unlimited
  | Maximum stacksize for task 24: unlimited
  | Maximum stacksize for task 25: unlimited
  | Maximum stacksize for task 26: unlimited
  | Maximum stacksize for task 27: unlimited
  | Maximum stacksize for task 28: unlimited
  | Maximum stacksize for task 29: unlimited
  | Maximum stacksize for task 30: unlimited
  | Maximum stacksize for task 31: unlimited
  | Maximum stacksize for task 32: unlimited
  | Maximum stacksize for task 33: unlimited
  | Maximum stacksize for task 34: unlimited
  | Maximum stacksize for task 35: unlimited
  | Maximum stacksize for task 36: unlimited
  | Maximum stacksize for task 37: unlimited
  | Maximum stacksize for task 38: unlimited
  | Maximum stacksize for task 39: unlimited
  | Maximum stacksize for task 40: unlimited
  | Maximum stacksize for task 41: unlimited
  | Maximum stacksize for task 42: unlimited
  | Maximum stacksize for task 43: unlimited
  | Maximum stacksize for task 44: unlimited
  | Maximum stacksize for task 45: unlimited
  | Maximum stacksize for task 46: unlimited
  | Maximum stacksize for task 47: unlimited
  | Maximum stacksize for task 48: unlimited
  | Maximum stacksize for task 49: unlimited
  | Maximum stacksize for task 50: unlimited
  | Maximum stacksize for task 51: unlimited
  | Maximum stacksize for task 52: unlimited
  | Maximum stacksize for task 53: unlimited
  | Maximum stacksize for task 54: unlimited
  | Maximum stacksize for task 55: unlimited
  | Maximum stacksize for task 56: unlimited
  | Maximum stacksize for task 57: unlimited
  | Maximum stacksize for task 58: unlimited
  | Maximum stacksize for task 59: unlimited
  | Maximum stacksize for task 60: unlimited
  | Maximum stacksize for task 61: unlimited
  | Maximum stacksize for task 62: unlimited
  | Maximum stacksize for task 63: unlimited
  | Maximum stacksize for task 64: unlimited
  | Maximum stacksize for task 65: unlimited
  | Maximum stacksize for task 66: unlimited
  | Maximum stacksize for task 67: unlimited
  | Maximum stacksize for task 68: unlimited
  | Maximum stacksize for task 69: unlimited
  | Maximum stacksize for task 70: unlimited
  | Maximum stacksize for task 71: unlimited
  | Maximum stacksize for task 72: unlimited
  | Maximum stacksize for task 73: unlimited
  | Maximum stacksize for task 74: unlimited
  | Maximum stacksize for task 75: unlimited
  | Maximum stacksize for task 76: unlimited
  | Maximum stacksize for task 77: unlimited
  | Maximum stacksize for task 78: unlimited
  | Maximum stacksize for task 79: unlimited
  | Maximum stacksize for task 80: unlimited
  | Maximum stacksize for task 81: unlimited
  | Maximum stacksize for task 82: unlimited
  | Maximum stacksize for task 83: unlimited
  | Maximum stacksize for task 84: unlimited
  | Maximum stacksize for task 85: unlimited
  | Maximum stacksize for task 86: unlimited
  | Maximum stacksize for task 87: unlimited
  | Maximum stacksize for task 88: unlimited
  | Maximum stacksize for task 89: unlimited
  | Maximum stacksize for task 90: unlimited
  | Maximum stacksize for task 91: unlimited
  | Maximum stacksize for task 92: unlimited
  | Maximum stacksize for task 93: unlimited
  | Maximum stacksize for task 94: unlimited
  | Maximum stacksize for task 95: unlimited
  | Maximum stacksize for task 96: unlimited
  | Maximum stacksize for task 97: unlimited
  | Maximum stacksize for task 98: unlimited
  | Maximum stacksize for task 99: unlimited
  | Maximum stacksize for task 100: unlimited
  | Maximum stacksize for task 101: unlimited
  | Maximum stacksize for task 102: unlimited
  | Maximum stacksize for task 103: unlimited
  | Maximum stacksize for task 104: unlimited
  | Maximum stacksize for task 105: unlimited
  | Maximum stacksize for task 106: unlimited
  | Maximum stacksize for task 107: unlimited
  | Maximum stacksize for task 108: unlimited
  | Maximum stacksize for task 109: unlimited
  | Maximum stacksize for task 110: unlimited
  | Maximum stacksize for task 111: unlimited
  | Maximum stacksize for task 112: unlimited
  | Maximum stacksize for task 113: unlimited
  | Maximum stacksize for task 114: unlimited
  | Maximum stacksize for task 115: unlimited
  | Maximum stacksize for task 116: unlimited
  | Maximum stacksize for task 117: unlimited
  | Maximum stacksize for task 118: unlimited
  | Maximum stacksize for task 119: unlimited
  | Maximum stacksize for task 120: unlimited
  | Maximum stacksize for task 121: unlimited
  | Maximum stacksize for task 122: unlimited
  | Maximum stacksize for task 123: unlimited
  | Maximum stacksize for task 124: unlimited
  | Maximum stacksize for task 125: unlimited
  | Maximum stacksize for task 126: unlimited
  | Maximum stacksize for task 127: unlimited
  | Maximum stacksize for task 128: unlimited
  | Maximum stacksize for task 129: unlimited
  | Maximum stacksize for task 130: unlimited
  | Maximum stacksize for task 131: unlimited
  | Maximum stacksize for task 132: unlimited
  | Maximum stacksize for task 133: unlimited
  | Maximum stacksize for task 134: unlimited
  | Maximum stacksize for task 135: unlimited
  | Maximum stacksize for task 136: unlimited
  | Maximum stacksize for task 137: unlimited
  | Maximum stacksize for task 138: unlimited
  | Maximum stacksize for task 139: unlimited
  | Maximum stacksize for task 140: unlimited
  | Maximum stacksize for task 141: unlimited
  | Maximum stacksize for task 142: unlimited
  | Maximum stacksize for task 143: unlimited
  | Maximum stacksize for task 144: unlimited
  | Maximum stacksize for task 145: unlimited
  | Maximum stacksize for task 146: unlimited
  | Maximum stacksize for task 147: unlimited
  | Maximum stacksize for task 148: unlimited
  | Maximum stacksize for task 149: unlimited
  | Maximum stacksize for task 150: unlimited
  | Maximum stacksize for task 151: unlimited
  | Maximum stacksize for task 152: unlimited
  | Maximum stacksize for task 153: unlimited
  | Maximum stacksize for task 154: unlimited
  | Maximum stacksize for task 155: unlimited
  | Maximum stacksize for task 156: unlimited
  | Maximum stacksize for task 157: unlimited
  | Maximum stacksize for task 158: unlimited
  | Maximum stacksize for task 159: unlimited
  | Maximum stacksize for task 160: unlimited
  | Maximum stacksize for task 161: unlimited
  | Maximum stacksize for task 162: unlimited
  | Maximum stacksize for task 163: unlimited
  | Maximum stacksize for task 164: unlimited
  | Maximum stacksize for task 165: unlimited
  | Maximum stacksize for task 166: unlimited
  | Maximum stacksize for task 167: unlimited
  | Maximum stacksize for task 168: unlimited
  | Maximum stacksize for task 169: unlimited
  | Maximum stacksize for task 170: unlimited
  | Maximum stacksize for task 171: unlimited
  | Maximum stacksize for task 172: unlimited
  | Maximum stacksize for task 173: unlimited
  | Maximum stacksize for task 174: unlimited
  | Maximum stacksize for task 175: unlimited
  | Maximum stacksize for task 176: unlimited
  | Maximum stacksize for task 177: unlimited
  | Maximum stacksize for task 178: unlimited
  | Maximum stacksize for task 179: unlimited
  | Maximum stacksize for task 180: unlimited
  | Maximum stacksize for task 181: unlimited
  | Maximum stacksize for task 182: unlimited
  | Maximum stacksize for task 183: unlimited
  | Maximum stacksize for task 184: unlimited
  | Maximum stacksize for task 185: unlimited
  | Maximum stacksize for task 186: unlimited
  | Maximum stacksize for task 187: unlimited
  | Maximum stacksize for task 188: unlimited
  | Maximum stacksize for task 189: unlimited
  | Maximum stacksize for task 190: unlimited
  | Maximum stacksize for task 191: unlimited
  | Maximum stacksize for task 192: unlimited
  | Maximum stacksize for task 193: unlimited
  | Maximum stacksize for task 194: unlimited
  | Maximum stacksize for task 195: unlimited
  | Maximum stacksize for task 196: unlimited
  | Maximum stacksize for task 197: unlimited
  | Maximum stacksize for task 198: unlimited
  | Maximum stacksize for task 199: unlimited
  | Maximum stacksize for task 200: unlimited
  | Maximum stacksize for task 201: unlimited
  | Maximum stacksize for task 202: unlimited
  | Maximum stacksize for task 203: unlimited
  | Maximum stacksize for task 204: unlimited
  | Maximum stacksize for task 205: unlimited
  | Maximum stacksize for task 206: unlimited
  | Maximum stacksize for task 207: unlimited
  | Maximum stacksize for task 208: unlimited
  | Maximum stacksize for task 209: unlimited
  | Maximum stacksize for task 210: unlimited
  | Maximum stacksize for task 211: unlimited
  | Maximum stacksize for task 212: unlimited
  | Maximum stacksize for task 213: unlimited
  | Maximum stacksize for task 214: unlimited
  | Maximum stacksize for task 215: unlimited
  | Maximum stacksize for task 216: unlimited
  | Maximum stacksize for task 217: unlimited
  | Maximum stacksize for task 218: unlimited
  | Maximum stacksize for task 219: unlimited
  | Maximum stacksize for task 220: unlimited
  | Maximum stacksize for task 221: unlimited
  | Maximum stacksize for task 222: unlimited
  | Maximum stacksize for task 223: unlimited
  | Maximum stacksize for task 224: unlimited
  | Maximum stacksize for task 225: unlimited
  | Maximum stacksize for task 226: unlimited
  | Maximum stacksize for task 227: unlimited
  | Maximum stacksize for task 228: unlimited
  | Maximum stacksize for task 229: unlimited
  | Maximum stacksize for task 230: unlimited
  | Maximum stacksize for task 231: unlimited
  | Maximum stacksize for task 232: unlimited
  | Maximum stacksize for task 233: unlimited
  | Maximum stacksize for task 234: unlimited
  | Maximum stacksize for task 235: unlimited
  | Maximum stacksize for task 236: unlimited
  | Maximum stacksize for task 237: unlimited
  | Maximum stacksize for task 238: unlimited
  | Maximum stacksize for task 239: unlimited
  | Current stacksize for task 0: unlimited
  | Current stacksize for task 1: unlimited
  | Current stacksize for task 2: unlimited
  | Current stacksize for task 3: unlimited
  | Current stacksize for task 4: unlimited
  | Current stacksize for task 5: unlimited
  | Current stacksize for task 6: unlimited
  | Current stacksize for task 7: unlimited
  | Current stacksize for task 8: unlimited
  | Current stacksize for task 9: unlimited
  | Current stacksize for task 10: unlimited
  | Current stacksize for task 11: unlimited
  | Current stacksize for task 12: unlimited
  | Current stacksize for task 13: unlimited
  | Current stacksize for task 14: unlimited
  | Current stacksize for task 15: unlimited
  | Current stacksize for task 16: unlimited
  | Current stacksize for task 17: unlimited
  | Current stacksize for task 18: unlimited
  | Current stacksize for task 19: unlimited
  | Current stacksize for task 20: unlimited
  | Current stacksize for task 21: unlimited
  | Current stacksize for task 22: unlimited
  | Current stacksize for task 23: unlimited
  | Current stacksize for task 24: unlimited
  | Current stacksize for task 25: unlimited
  | Current stacksize for task 26: unlimited
  | Current stacksize for task 27: unlimited
  | Current stacksize for task 28: unlimited
  | Current stacksize for task 29: unlimited
  | Current stacksize for task 30: unlimited
  | Current stacksize for task 31: unlimited
  | Current stacksize for task 32: unlimited
  | Current stacksize for task 33: unlimited
  | Current stacksize for task 34: unlimited
  | Current stacksize for task 35: unlimited
  | Current stacksize for task 36: unlimited
  | Current stacksize for task 37: unlimited
  | Current stacksize for task 38: unlimited
  | Current stacksize for task 39: unlimited
  | Current stacksize for task 40: unlimited
  | Current stacksize for task 41: unlimited
  | Current stacksize for task 42: unlimited
  | Current stacksize for task 43: unlimited
  | Current stacksize for task 44: unlimited
  | Current stacksize for task 45: unlimited
  | Current stacksize for task 46: unlimited
  | Current stacksize for task 47: unlimited
  | Current stacksize for task 48: unlimited
  | Current stacksize for task 49: unlimited
  | Current stacksize for task 50: unlimited
  | Current stacksize for task 51: unlimited
  | Current stacksize for task 52: unlimited
  | Current stacksize for task 53: unlimited
  | Current stacksize for task 54: unlimited
  | Current stacksize for task 55: unlimited
  | Current stacksize for task 56: unlimited
  | Current stacksize for task 57: unlimited
  | Current stacksize for task 58: unlimited
  | Current stacksize for task 59: unlimited
  | Current stacksize for task 60: unlimited
  | Current stacksize for task 61: unlimited
  | Current stacksize for task 62: unlimited
  | Current stacksize for task 63: unlimited
  | Current stacksize for task 64: unlimited
  | Current stacksize for task 65: unlimited
  | Current stacksize for task 66: unlimited
  | Current stacksize for task 67: unlimited
  | Current stacksize for task 68: unlimited
  | Current stacksize for task 69: unlimited
  | Current stacksize for task 70: unlimited
  | Current stacksize for task 71: unlimited
  | Current stacksize for task 72: unlimited
  | Current stacksize for task 73: unlimited
  | Current stacksize for task 74: unlimited
  | Current stacksize for task 75: unlimited
  | Current stacksize for task 76: unlimited
  | Current stacksize for task 77: unlimited
  | Current stacksize for task 78: unlimited
  | Current stacksize for task 79: unlimited
  | Current stacksize for task 80: unlimited
  | Current stacksize for task 81: unlimited
  | Current stacksize for task 82: unlimited
  | Current stacksize for task 83: unlimited
  | Current stacksize for task 84: unlimited
  | Current stacksize for task 85: unlimited
  | Current stacksize for task 86: unlimited
  | Current stacksize for task 87: unlimited
  | Current stacksize for task 88: unlimited
  | Current stacksize for task 89: unlimited
  | Current stacksize for task 90: unlimited
  | Current stacksize for task 91: unlimited
  | Current stacksize for task 92: unlimited
  | Current stacksize for task 93: unlimited
  | Current stacksize for task 94: unlimited
  | Current stacksize for task 95: unlimited
  | Current stacksize for task 96: unlimited
  | Current stacksize for task 97: unlimited
  | Current stacksize for task 98: unlimited
  | Current stacksize for task 99: unlimited
  | Current stacksize for task 100: unlimited
  | Current stacksize for task 101: unlimited
  | Current stacksize for task 102: unlimited
  | Current stacksize for task 103: unlimited
  | Current stacksize for task 104: unlimited
  | Current stacksize for task 105: unlimited
  | Current stacksize for task 106: unlimited
  | Current stacksize for task 107: unlimited
  | Current stacksize for task 108: unlimited
  | Current stacksize for task 109: unlimited
  | Current stacksize for task 110: unlimited
  | Current stacksize for task 111: unlimited
  | Current stacksize for task 112: unlimited
  | Current stacksize for task 113: unlimited
  | Current stacksize for task 114: unlimited
  | Current stacksize for task 115: unlimited
  | Current stacksize for task 116: unlimited
  | Current stacksize for task 117: unlimited
  | Current stacksize for task 118: unlimited
  | Current stacksize for task 119: unlimited
  | Current stacksize for task 120: unlimited
  | Current stacksize for task 121: unlimited
  | Current stacksize for task 122: unlimited
[...]
  |    6         -0.856254853963807E-03          0.692196720926263E-03          0.162467141761253E-05
  |    7         -0.889701697891969E-05         -0.237909188917009E-04         -0.202581287300953E-02
  |    8          0.250691119923814E-02         -0.250963055181746E-02         -0.436521817032575E-02
  |    9         -0.149637352859553E-02         -0.994737045540197E-03         -0.172580422344818E-03
  |   10          0.150697438796944E-02          0.993867951194112E-03         -0.174137532458801E-03
  |   11         -0.177854011427488E-02         -0.689819315242348E-03         -0.158171127505007E-02
  |   12          0.178559756311208E-02          0.698422623577126E-03         -0.157940715342379E-02
  |   13         -0.979983451326442E-05         -0.116458296147312E-04          0.309072507829835E-05
  |   14          0.281545366702087E-03         -0.265813350364718E-03          0.404362338762027E-02
  |   15          0.324846969517542E-03         -0.104538036906530E-02          0.522274955620327E-05
  |   16         -0.319660509680730E-03          0.103850971333905E-02          0.125542366815628E-05
  |   17         -0.470531970581695E-03          0.301245198757975E-02         -0.470307695953869E-02
  |   18          0.493467674258360E-03         -0.299506812283836E-02         -0.470687985753318E-02
  |   19         -0.637700962586599E-05         -0.185765137425528E-05          0.202346648498704E-02
  |   20          0.278409022064268E-03         -0.283413402402118E-03         -0.401012908470344E-02
  |   21         -0.150192370130429E-02         -0.999706685134648E-03          0.172384769078764E-03
  |   22          0.149447356215707E-02          0.997139659969176E-03          0.174926498243693E-03
  |   23         -0.467157428877911E-03          0.302056364202290E-02          0.471193159054701E-02
  |   24          0.472775239824163E-03         -0.301227991802619E-02          0.471623722225228E-02
  |   25         -0.713450148027348E-05         -0.113023311323862E-05         -0.359854479851566E-02
  |   26          0.250081933913136E-02         -0.251756842311229E-02          0.435400921339870E-02
  |   27         -0.965080640110473E-03          0.955605930425788E-03         -0.144195546236608E-02
  |   28          0.960402828832213E-03         -0.954533910843219E-03         -0.144882346012440E-02
  |   29         -0.176249391173114E-02         -0.678203707198043E-03          0.157539715450521E-02
  |   30          0.177943517201170E-02          0.687886708744835E-03          0.159090797070080E-02
  |   31          0.664813579690378E-05         -0.422875432192837E-05          0.332243771492915E-02
  |   32          0.679368698689795E-02          0.679945991349529E-02          0.316059321501032E-06
  |   33          0.302349828278008E-02         -0.301293796649290E-02          0.427152660227533E-02
  |   34         -0.300894253797575E-02          0.300161182589490E-02          0.428954261673368E-02
  |   35          0.362806492236479E-02          0.365340990470885E-02         -0.219183293541571E-05
  |   36         -0.364504068759023E-02         -0.363866019907461E-02         -0.502496705492019E-06
  |   37          0.362899967585758E-05         -0.371696378809898E-05          0.184418547454645E-02
  |   38          0.736692536028367E-04          0.787154647542044E-04          0.300919935964251E-02
  |   39         -0.287087789025688E-02          0.287520266516077E-02         -0.192744793719424E-02
  |   40          0.285264889051605E-02         -0.286300118411583E-02         -0.193046710665011E-02
  |   41          0.464874003971302E-03          0.464799455277369E-03          0.206106237078282E-02
  |   42         -0.457290052721885E-03         -0.474931159484910E-03          0.205887901562368E-02
  |   43         -0.134025634529404E-04         -0.124578879455906E-04         -0.299203926776261E-04
  |   44         -0.165274663999860E-02         -0.166007127904887E-02         -0.500630137921620E-02
  |   45          0.416428139843670E-02         -0.415605833198262E-02         -0.122076794980560E-04
  |   46         -0.413681760740664E-02          0.413545570389259E-02          0.841698020044800E-05
  |   47         -0.363274347234980E-02         -0.362020664502681E-02         -0.179879558943625E-03
  |   48          0.364690023149303E-02          0.364019365349055E-02         -0.174581445633120E-03
  |   49         -0.332481613788243E-04          0.115351692050998E-04         -0.185965663073869E-02
  |   50         -0.164818796745290E-02         -0.166405004422857E-02          0.500130082988047E-02
  |   51         -0.283675640526508E-02          0.284741285416900E-02          0.192250187845662E-02
  |   52          0.285593349123138E-02         -0.286494138898183E-02          0.192674733237172E-02
  |   53         -0.364190750391591E-02         -0.363558281848329E-02          0.205624438524320E-03
  |   54          0.364795244776491E-02          0.363801168456586E-02          0.191139248008398E-03
  |   55          0.101124068966335E-05         -0.816794235476464E-05         -0.329665111793417E-02
  |   56          0.722109131311750E-04          0.714060244470372E-04         -0.300431076212279E-02
  |   57          0.303845872362852E-02         -0.302880326900026E-02         -0.426177806128867E-02
  |   58         -0.300239549393425E-02          0.299203116954167E-02         -0.428502630510091E-02
  |   59          0.480587772885722E-03          0.489116249836773E-03         -0.206574979192143E-02
  |   60         -0.468638712651350E-03         -0.474386174278462E-03         -0.207026776397925E-02
  |   61         -0.530776663334499E-05         -0.102828470409315E-05         -0.349918805982545E-02
  |   62         -0.679667635192348E-02         -0.680057636575489E-02          0.111150295812625E-04
  |   63         -0.110208679814498E-02          0.110999207714901E-02         -0.141603700776129E-02
  |   64          0.108981598090527E-02         -0.109424642229835E-02         -0.141309300448683E-02
  |   65          0.306784951711479E-03          0.319610012432865E-03          0.995763992537455E-06
  |   66         -0.306525859490977E-03         -0.314100744193887E-03         -0.749265072002277E-05
  |   67         -0.106613998979668E-05         -0.574063594587818E-05         -0.925390136074957E-02
  |   68         -0.792988643169133E-04         -0.635508627697495E-04          0.301849501265060E-02
  |   69         -0.219896203799019E-02          0.220599883249836E-02         -0.393945232828259E-02
  |   70          0.220300228017125E-02         -0.221337498975106E-02         -0.394893424496665E-02
  |   71          0.968356875424401E-03          0.975474858871976E-03          0.284151079624237E-02
  |   72         -0.961963252986318E-03         -0.973698054053546E-03          0.283798087925827E-02
  |   73          0.156266482879363E-04         -0.161157867829765E-04         -0.637820941002958E-05
  |   74          0.164412250817467E-02          0.167147789939601E-02         -0.501911194758865E-02
  |   75         -0.291307900054295E-02          0.291927884369042E-02         -0.433951002574315E-05
  |   76          0.291796526633704E-02         -0.292536367604752E-02          0.259939050843760E-05
  |   77         -0.180525187685874E-02         -0.178864234662425E-02         -0.599850564228093E-02
  |   78          0.179043950284500E-02          0.179598930754799E-02         -0.599840305681899E-02
  |   79          0.107617688086232E-04         -0.912625082503395E-05          0.924856101453739E-02
  |   80          0.165626192745124E-02          0.166293867574204E-02          0.500246013870777E-02
  |   81         -0.220009177129334E-02          0.220803109115743E-02          0.394334971305768E-02
  |   82          0.218187837830526E-02         -0.218801336621307E-02          0.394803386230672E-02
  |   83         -0.180453314570172E-02         -0.178849230359629E-02          0.599714821005836E-02
  |   84          0.179344664851639E-02          0.179646922183440E-02          0.599843828120990E-02
  |   85          0.141264579356961E-04         -0.120938397853033E-04          0.351064981961086E-02
  |   86         -0.643027178126173E-04         -0.711739436612429E-04         -0.301162274802989E-02
  |   87         -0.109668802576912E-02          0.109836861506752E-02          0.142366978689653E-02
  |   88          0.107502832142600E-02         -0.108120248122346E-02          0.142191133510463E-02
  |   89          0.961499691000157E-03          0.967112168952205E-03         -0.283775183094788E-02
  |   90         -0.967953568589621E-03         -0.972712705396626E-03         -0.283943207791467E-02
  |   91          0.384420979884305E-05          0.635406253795501E-05          0.358622618530655E-02
  |   92         -0.957429450413349E-03          0.971871779300757E-03          0.294030336392121E-06
  |   93         -0.956626037001364E-03          0.981444534276552E-03          0.143973833529625E-02
  |   94          0.940163762977571E-03         -0.966149863202803E-03          0.143966031833897E-02
  |   95         -0.711709670841094E-03          0.854478727090731E-03         -0.361502012243608E-06
  |   96          0.704168777150334E-03         -0.870467365601648E-03         -0.170347675677356E-07
  |   97          0.130599724742569E-04          0.102299798145518E-04         -0.203693738159898E-02
  |   98         -0.250868725644141E-02          0.251086462375711E-02         -0.436491696126865E-02
  |   99          0.100923774476051E-02          0.150456002506623E-02         -0.170049058477735E-03
  |  100         -0.100512217033475E-02         -0.151222147129830E-02         -0.171134103056219E-03
  |  101         -0.703044316267786E-03         -0.177870526851396E-02         -0.158591019735766E-02
  |  102          0.699002265125766E-03          0.176586671239768E-02         -0.157223342827095E-02
  |  103          0.119251213632677E-04          0.104607057293233E-04          0.154408422464167E-04
  |  104         -0.294013567921659E-03          0.293008325762573E-03          0.400844058834585E-02
  |  105          0.104956451303193E-02         -0.318734660223372E-03          0.120052338193696E-05
  |  106         -0.106319456612766E-02          0.319113280967459E-03         -0.171182994769887E-05
  |  107          0.299261715116550E-02         -0.477869187845817E-03         -0.470887686926525E-02
  |  108         -0.300088048991486E-02          0.468766397260422E-03         -0.470710134225940E-02
  |  109          0.173630713716128E-05          0.409915196611352E-05          0.204743921364100E-02
  |  110         -0.291543605631976E-03          0.285506535735023E-03         -0.402663864317125E-02
  |  111          0.997064187321486E-03          0.151153849999322E-02          0.177577513311901E-03
  |  112         -0.100877469799394E-02         -0.150296536875781E-02          0.160156081876810E-03
  |  113          0.299290754003842E-02         -0.480982216538239E-03          0.470171479059626E-02
  |  114         -0.300773527873976E-02          0.458987127676415E-03          0.470368807593778E-02
  |  115          0.124040886538480E-05         -0.118645998918346E-04         -0.360931009570292E-02
  |  116         -0.249951126826901E-02          0.252964383174256E-02          0.437777932151649E-02
  |  117         -0.949762055839827E-03          0.977071208576024E-03         -0.145054717535674E-02
  |  118          0.956691357305141E-03         -0.980693852589640E-03         -0.144202791316059E-02
  |  119         -0.688437361795106E-03         -0.175091954417026E-02          0.157258019018447E-02
  |  120          0.678579512402903E-03          0.175533829881946E-02          0.157247644620673E-02

  ------------------------------------ 
  Start decomposition of the XC Energy 
  ------------------------------------ 
  X and C from original XC functional choice 
  Hartree-Fock Energy :          0.000000000 Ha              0.000000000 eV
  X Energy            :      -2406.397269322 Ha         -65481.401355275 eV
  C Energy            :        -70.104284605 Ha          -1907.634643478 eV
  XC Energy w/o HF    :      -2476.501553927 Ha         -67389.035998753 eV
  Total XC Energy     :      -2476.501553927 Ha         -67389.035998753 eV
  ------------------------------------ 
  LDA X and C from self-consistent density 
  X Energy LDA        :      -2166.554783922 Ha         -58954.955265603 eV
  C Energy LDA        :       -118.150964258 Ha          -3215.051317457 eV
  ------------------------------------ 
  End decomposition of the XC Energy 
  ------------------------------------ 

------------------------------------------------------------

------------------------------------------------------------------------------
  Final output of selected total energy values:

  The following output summarizes some interesting total energy values
  at the end of a run (AFTER all relaxation, molecular dynamics, etc.).

  | Total energy of the DFT / Hartree-Fock s.c.f. calculation      :       -1116484.420988416 eV
  | Final zero-broadening corrected energy (caution - metals only) :       -1116484.420988416 eV
  | For reference only, the value of 1 Hartree used in FHI-aims is :             27.211384500 eV
  | For reference only, the overall average (free atom contribution
  | + realspace contribution) of the electrostatic potential after
  | s.c.f. convergence is                                          :            -17.229214663 eV

  Before relying on these values, please be sure to understand exactly which
  total energy value is referred to by a given number. Different objects may
  all carry the same name 'total energy'. Definitions:

  Total energy of the DFT / Hartree-Fock s.c.f. calculation:
  | Note that this energy does not include ANY quantities calculated after the
  | s.c.f. cycle, in particular not ANY RPA, MP2, etc. many-body perturbation terms.

  Final zero-broadening corrected energy:
  | For metallic systems only, a broadening of the occupation numbers at the Fermi
  | level can be extrapolated back to zero broadening by an electron-gas inspired
  | formula. For all systems that are not real metals, this value can be
  | meaningless and should be avoided.

------------------------------------------------------------------------------
  Methods described in the following list of references were used in this FHI-aims run.
  If you publish the results, please make sure to cite these reference if they apply.
  FHI-aims is an academic code, and for our developers (often, Ph.D. students
  and postdocs), scientific credit in the community is essential.
  Thank you for helping us!

  For any use of FHI-aims, please cite:

    Volker Blum, Ralf Gehrke, Felix Hanke, Paula Havu, Ville Havu,
    Xinguo Ren, Karsten Reuter, and Matthias Scheffler
    'Ab initio molecular simulations with numeric atom-centered orbitals'
    Computer Physics Communications 180, 2175-2196 (2009)
    http://doi.org/10.1016/j.cpc.2009.06.022


  The provided symmetry information was generated with SPGlib:

    Atsushi Togo, Yusuke Seto, Dimitar Pashov
    SPGlib 1.7.3 obtained from http://spglib.sourceforge.net
    Copyright (C) 2008 Atsushi Togo


 DFT+U infrastructure was used in your run
 please cite:

 Matthias Kick, Karsten Reuter and Harald Oberhofer,
 Intricacies Of DFT+U, not only in a Numeric Atom Centered Orbital Framework

 Journal of Chemical Theory and Computation
 https://


  The ELSI infrastructure was used in your run to solve the Kohn-Sham electronic structure.
  Please check out http://elsi-interchange.org to learn more.
  If scalability is important for your project, please acknowledge ELSI by citing:

    V. W-z. Yu, F. Corsetti, A. Garcia, W. P. Huhn, M. Jacquelin, W. Jia,
    B. Lange, L. Lin, J. Lu, W. Mi, A. Seifitokaldani, A. Vazquez-Mayagoitia,
    C. Yang, H. Yang, and V. Blum
    'ELSI: A unified software interface for Kohn-Sham electronic structure solvers'
    Computer Physics Communications 222, 267-285 (2018).
    http://doi.org/10.1016/j.cpc.2017.09.007


  For the real-space grid partitioning and parallelization used in this calculation, please cite:

    Ville Havu, Volker Blum, Paula Havu, and Matthias Scheffler,
    'Efficient O(N) integration for all-electron electronic structure calculation'
    'using numerically tabulated basis functions'
    Journal of Computational Physics 228, 8367-8379 (2009).
    http://doi.org/10.1016/j.jcp.2009.08.008

  Of course, there are many other important community references, e.g., those cited in the
  above references. Our list is limited to references that describe implementations in the
  FHI-aims code. The reason is purely practical (length of this list) - please credit others as well.

 * A warning was issued further up regarding the accuracy of onsite integrals.
   An integral with a negative eigenvalue was among the flagged integrals.
   In most standard situations, this warning is probably harmless.
   If needed, this can be verified by adjusting the radial_multiplier flag.

 * Warning - a code part requested a citation which was not known
 * to subroutine cite_reference in module applicable_citations.f90 .
 * Likely this is a programmer's oversight. Please let us know.

------------------------------------------------------------
          Leaving FHI-aims.
          Date     :  20250608, Time     :  020028.991

          Computational steps:
          | Number of self-consistency cycles          :           29
          | Number of SCF (re)initializations          :            1

          Detailed time accounting                     :  max(cpu_time)    wall_clock(cpu1)
          | Total time                                  :      149.936 s         150.621 s
          | Preparation time                            :        0.908 s           0.907 s
          | Boundary condition initalization            :        0.243 s           0.236 s
          | Grid partitioning                           :        0.328 s           0.328 s
          | Preloading free-atom quantities on grid     :        0.464 s           0.467 s
          | Free-atom superposition energy              :        0.055 s           0.055 s
          | Total time for integrations                 :       30.310 s          30.387 s
          | Total time for solution of K.-S. equations  :       34.305 s          31.923 s
          | Total time for density & force components   :       49.439 s          49.562 s
          | Total time for mixing                       :        0.391 s           0.184 s
          | Total time for Hartree multipole update     :        0.410 s           0.427 s
          | Total time for Hartree multipole sum        :        9.767 s           9.794 s
          | Total time for total energy evaluation      :        0.016 s           0.066 s
          | Total time NSC force correction             :        1.462 s           1.534 s
          | Total time for scaled ZORA corrections      :        0.000 s           0.000 s

          Partial memory accounting:
          | Residual value for overall tracked memory usage across tasks:     0.000000 MB (should be 0.000000 MB)
          | Peak values for overall tracked memory usage:
          |   Minimum:      149.841 MB (on task  19 after allocating temp_ham_ovlp)
          |   Maximum:      150.363 MB (on task   0 after allocating temp_ham_ovlp)
          |   Average:      150.173 MB
          | Largest tracked array allocation:
          |   Minimum:       41.632 MB (overlap_matrix on task   0)
          |   Maximum:       41.632 MB (overlap_matrix on task   0)
          |   Average:       41.632 MB
          Note:  These values currently only include a subset of arrays which are explicitly tracked.
          The "true" memory usage will be greater.

          Have a nice day.
------------------------------------------------------------
