------------------------------------------------------------
          Invoking FHI-aims ...

          When using FHI-aims, please cite the following reference:

            Volker Blum, Ralf Gehrke, Felix Hanke, Paula Havu,
            Ville Havu, Xinguo Ren, Karsten Reuter, and Matthias Scheffler,
            'Ab Initio Molecular Simulations with Numeric Atom-Centered Orbitals',
            Computer Physics Communications 180, 2175-2196 (2009)

          In addition, many other developments in FHI-aims are likely important for
          your particular application. A partial list of references is given at the end of
          this file. Thank you for giving credit to the authors of these developments.

          For any questions about FHI-aims, please visit our slack channel at

            https://fhi-aims.slack.com

          and our main development and support site at

            https://aims-git.rz-berlin.mpg.de .

          The latter site, in particular, has a wiki to collect information, as well
          as an issue tracker to log discussions, suggest improvements, and report issues
          or bugs. https://aims-git.rz-berlin.mpg.de is also the main development site
          of the project and all new and updated code versions can be obtained there.
          Please send an email to aims-coordinators@fhi-berlin.mpg.de and we will add
          you to these sites. They are for you and everyone is welcome there.

------------------------------------------------------------



  Date     :  20230128, Time     :  224749.306
  Time zero on CPU 1             :   0.174701800000000E+01  s.
  Internal wall clock time zero  :           444178069.306  s.

  FHI-aims created a unique identifier for this run for later identification
  aims_uuid : 72511484-A139-4B85-A1F0-8C471EA7AA7B

  Build configuration of the current instance of FHI-aims
  -------------------------------------------------------
  FHI-aims version      : 220429
  Commit number         : cce389c3e
  CMake host system     : Linux-4.12.14-197.78_9.1.64-cray_shasta_c
  CMake version         : 3.10.2
  Fortran compiler      : /opt/cray/pe/craype/2.7.6/bin/ftn (GNU) version 10.2.0
  Fortran compiler flags: -g -fbacktrace -ffree-line-length-none -fallow-argument-mismatch
  C compiler            : /opt/cray/pe/craype/2.7.6/bin/cc (GNU) version 10.2.0
  C compiler flags      : -g
  Using MPI
  Using ScaLAPACK
  Using LibXC
  Using i-PI
  Using RLSY
  Linking against:

  Using      512 parallel tasks.
  Task        0 on host nid005667 reporting.
  Task        1 on host nid005667 reporting.
  Task        2 on host nid005667 reporting.
  Task        3 on host nid005667 reporting.
  Task        4 on host nid005667 reporting.
  Task        5 on host nid005667 reporting.
  Task        6 on host nid005667 reporting.
  Task        7 on host nid005667 reporting.
  Task        8 on host nid005667 reporting.
  Task        9 on host nid005667 reporting.
  Task       10 on host nid005667 reporting.
  Task       11 on host nid005667 reporting.
  Task       12 on host nid005667 reporting.
  Task       13 on host nid005667 reporting.
  Task       14 on host nid005667 reporting.
  Task       15 on host nid005667 reporting.
  Task       16 on host nid005667 reporting.
  Task       17 on host nid005667 reporting.
  Task       18 on host nid005667 reporting.
  Task       19 on host nid005667 reporting.
  Task       20 on host nid005667 reporting.
  Task       21 on host nid005667 reporting.
  Task       22 on host nid005667 reporting.
  Task       23 on host nid005667 reporting.
  Task       24 on host nid005667 reporting.
  Task       25 on host nid005667 reporting.
  Task       26 on host nid005667 reporting.
  Task       27 on host nid005667 reporting.
  Task       28 on host nid005667 reporting.
  Task       29 on host nid005667 reporting.
  Task       30 on host nid005667 reporting.
  Task       31 on host nid005667 reporting.
  Task       32 on host nid005667 reporting.
  Task       33 on host nid005667 reporting.
  Task       34 on host nid005667 reporting.
  Task       35 on host nid005667 reporting.
  Task       36 on host nid005667 reporting.
  Task       37 on host nid005667 reporting.
  Task       38 on host nid005667 reporting.
  Task       39 on host nid005667 reporting.
  Task       40 on host nid005667 reporting.
  Task       41 on host nid005667 reporting.
  Task       42 on host nid005667 reporting.
  Task       43 on host nid005667 reporting.
  Task       44 on host nid005667 reporting.
  Task       45 on host nid005667 reporting.
  Task       46 on host nid005667 reporting.
  Task       47 on host nid005667 reporting.
  Task       48 on host nid005667 reporting.
  Task       49 on host nid005667 reporting.
  Task       50 on host nid005667 reporting.
  Task       51 on host nid005667 reporting.
  Task       52 on host nid005667 reporting.
  Task       53 on host nid005667 reporting.
  Task       54 on host nid005667 reporting.
  Task       55 on host nid005667 reporting.
  Task       56 on host nid005667 reporting.
  Task       57 on host nid005667 reporting.
  Task       58 on host nid005667 reporting.
  Task       59 on host nid005667 reporting.
  Task       60 on host nid005667 reporting.
  Task       61 on host nid005667 reporting.
  Task       62 on host nid005667 reporting.
  Task       63 on host nid005667 reporting.
  Task       64 on host nid005667 reporting.
  Task       65 on host nid005667 reporting.
  Task       66 on host nid005667 reporting.
  Task       67 on host nid005667 reporting.
  Task       68 on host nid005667 reporting.
  Task       69 on host nid005667 reporting.
  Task       70 on host nid005667 reporting.
  Task       71 on host nid005667 reporting.
  Task       72 on host nid005667 reporting.
  Task       73 on host nid005667 reporting.
  Task       74 on host nid005667 reporting.
  Task       75 on host nid005667 reporting.
  Task       76 on host nid005667 reporting.
  Task       77 on host nid005667 reporting.
  Task       78 on host nid005667 reporting.
  Task       79 on host nid005667 reporting.
  Task       80 on host nid005667 reporting.
  Task       81 on host nid005667 reporting.
  Task       82 on host nid005667 reporting.
  Task       83 on host nid005667 reporting.
  Task       84 on host nid005667 reporting.
  Task       85 on host nid005667 reporting.
  Task       86 on host nid005667 reporting.
  Task       87 on host nid005667 reporting.
  Task       88 on host nid005667 reporting.
  Task       89 on host nid005667 reporting.
  Task       90 on host nid005667 reporting.
  Task       91 on host nid005667 reporting.
  Task       92 on host nid005667 reporting.
  Task       93 on host nid005667 reporting.
  Task       94 on host nid005667 reporting.
  Task       95 on host nid005667 reporting.
  Task       96 on host nid005667 reporting.
  Task       97 on host nid005667 reporting.
  Task       98 on host nid005667 reporting.
  Task       99 on host nid005667 reporting.
  Task      100 on host nid005667 reporting.
  Task      101 on host nid005667 reporting.
  Task      102 on host nid005667 reporting.
  Task      103 on host nid005667 reporting.
  Task      104 on host nid005667 reporting.
  Task      105 on host nid005667 reporting.
  Task      106 on host nid005667 reporting.
  Task      107 on host nid005667 reporting.
  Task      108 on host nid005667 reporting.
  Task      109 on host nid005667 reporting.
  Task      110 on host nid005667 reporting.
  Task      111 on host nid005667 reporting.
  Task      112 on host nid005667 reporting.
  Task      113 on host nid005667 reporting.
  Task      114 on host nid005667 reporting.
  Task      115 on host nid005667 reporting.
  Task      116 on host nid005667 reporting.
  Task      117 on host nid005667 reporting.
  Task      118 on host nid005667 reporting.
  Task      119 on host nid005667 reporting.
  Task      120 on host nid005667 reporting.
  Task      121 on host nid005667 reporting.
  Task      122 on host nid005667 reporting.
  Task      123 on host nid005667 reporting.
  Task      124 on host nid005667 reporting.
  Task      125 on host nid005667 reporting.
  Task      126 on host nid005667 reporting.
  Task      127 on host nid005667 reporting.
  Task      128 on host nid005672 reporting.
  Task      129 on host nid005672 reporting.
  Task      130 on host nid005672 reporting.
  Task      131 on host nid005672 reporting.
  Task      132 on host nid005672 reporting.
  Task      133 on host nid005672 reporting.
  Task      134 on host nid005672 reporting.
  Task      135 on host nid005672 reporting.
  Task      136 on host nid005672 reporting.
  Task      137 on host nid005672 reporting.
  Task      138 on host nid005672 reporting.
  Task      139 on host nid005672 reporting.
  Task      140 on host nid005672 reporting.
  Task      141 on host nid005672 reporting.
  Task      142 on host nid005672 reporting.
  Task      143 on host nid005672 reporting.
  Task      144 on host nid005672 reporting.
  Task      145 on host nid005672 reporting.
  Task      146 on host nid005672 reporting.
  Task      147 on host nid005672 reporting.
  Task      148 on host nid005672 reporting.
  Task      149 on host nid005672 reporting.
  Task      150 on host nid005672 reporting.
  Task      151 on host nid005672 reporting.
  Task      152 on host nid005672 reporting.
  Task      153 on host nid005672 reporting.
  Task      154 on host nid005672 reporting.
  Task      155 on host nid005672 reporting.
  Task      156 on host nid005672 reporting.
  Task      157 on host nid005672 reporting.
  Task      158 on host nid005672 reporting.
  Task      159 on host nid005672 reporting.
  Task      160 on host nid005672 reporting.
  Task      161 on host nid005672 reporting.
  Task      162 on host nid005672 reporting.
  Task      163 on host nid005672 reporting.
  Task      164 on host nid005672 reporting.
  Task      165 on host nid005672 reporting.
  Task      166 on host nid005672 reporting.
  Task      167 on host nid005672 reporting.
  Task      168 on host nid005672 reporting.
  Task      169 on host nid005672 reporting.
  Task      170 on host nid005672 reporting.
  Task      171 on host nid005672 reporting.
  Task      172 on host nid005672 reporting.
  Task      173 on host nid005672 reporting.
  Task      174 on host nid005672 reporting.
  Task      175 on host nid005672 reporting.
  Task      176 on host nid005672 reporting.
  Task      177 on host nid005672 reporting.
  Task      178 on host nid005672 reporting.
  Task      179 on host nid005672 reporting.
  Task      180 on host nid005672 reporting.
  Task      181 on host nid005672 reporting.
  Task      182 on host nid005672 reporting.
  Task      183 on host nid005672 reporting.
  Task      184 on host nid005672 reporting.
  Task      185 on host nid005672 reporting.
  Task      186 on host nid005672 reporting.
  Task      187 on host nid005672 reporting.
  Task      188 on host nid005672 reporting.
  Task      189 on host nid005672 reporting.
  Task      190 on host nid005672 reporting.
  Task      191 on host nid005672 reporting.
  Task      192 on host nid005672 reporting.
  Task      193 on host nid005672 reporting.
  Task      194 on host nid005672 reporting.
  Task      195 on host nid005672 reporting.
  Task      196 on host nid005672 reporting.
  Task      197 on host nid005672 reporting.
  Task      198 on host nid005672 reporting.
  Task      199 on host nid005672 reporting.
  Task      200 on host nid005672 reporting.
  Task      201 on host nid005672 reporting.
  Task      202 on host nid005672 reporting.
  Task      203 on host nid005672 reporting.
  Task      204 on host nid005672 reporting.
  Task      205 on host nid005672 reporting.
  Task      206 on host nid005672 reporting.
  Task      207 on host nid005672 reporting.
  Task      208 on host nid005672 reporting.
  Task      209 on host nid005672 reporting.
  Task      210 on host nid005672 reporting.
  Task      211 on host nid005672 reporting.
  Task      212 on host nid005672 reporting.
  Task      213 on host nid005672 reporting.
  Task      214 on host nid005672 reporting.
  Task      215 on host nid005672 reporting.
  Task      216 on host nid005672 reporting.
  Task      217 on host nid005672 reporting.
  Task      218 on host nid005672 reporting.
  Task      219 on host nid005672 reporting.
  Task      220 on host nid005672 reporting.
  Task      221 on host nid005672 reporting.
  Task      222 on host nid005672 reporting.
  Task      223 on host nid005672 reporting.
  Task      224 on host nid005672 reporting.
  Task      225 on host nid005672 reporting.
  Task      226 on host nid005672 reporting.
  Task      227 on host nid005672 reporting.
  Task      228 on host nid005672 reporting.
  Task      229 on host nid005672 reporting.
  Task      230 on host nid005672 reporting.
  Task      231 on host nid005672 reporting.
  Task      232 on host nid005672 reporting.
  Task      233 on host nid005672 reporting.
  Task      234 on host nid005672 reporting.
  Task      235 on host nid005672 reporting.
  Task      236 on host nid005672 reporting.
  Task      237 on host nid005672 reporting.
  Task      238 on host nid005672 reporting.
  Task      239 on host nid005672 reporting.
  Task      240 on host nid005672 reporting.
  Task      241 on host nid005672 reporting.
  Task      242 on host nid005672 reporting.
  Task      243 on host nid005672 reporting.
  Task      244 on host nid005672 reporting.
  Task      245 on host nid005672 reporting.
  Task      246 on host nid005672 reporting.
  Task      247 on host nid005672 reporting.
  Task      248 on host nid005672 reporting.
  Task      249 on host nid005672 reporting.
  Task      250 on host nid005672 reporting.
  Task      251 on host nid005672 reporting.
  Task      252 on host nid005672 reporting.
  Task      253 on host nid005672 reporting.
  Task      254 on host nid005672 reporting.
  Task      255 on host nid005672 reporting.
  Task      256 on host nid005678 reporting.
  Task      257 on host nid005678 reporting.
  Task      258 on host nid005678 reporting.
  Task      259 on host nid005678 reporting.
  Task      260 on host nid005678 reporting.
  Task      261 on host nid005678 reporting.
  Task      262 on host nid005678 reporting.
  Task      263 on host nid005678 reporting.
  Task      264 on host nid005678 reporting.
  Task      265 on host nid005678 reporting.
  Task      266 on host nid005678 reporting.
  Task      267 on host nid005678 reporting.
  Task      268 on host nid005678 reporting.
  Task      269 on host nid005678 reporting.
  Task      270 on host nid005678 reporting.
  Task      271 on host nid005678 reporting.
  Task      272 on host nid005678 reporting.
  Task      273 on host nid005678 reporting.
  Task      274 on host nid005678 reporting.
  Task      275 on host nid005678 reporting.
  Task      276 on host nid005678 reporting.
  Task      277 on host nid005678 reporting.
  Task      278 on host nid005678 reporting.
  Task      279 on host nid005678 reporting.
  Task      280 on host nid005678 reporting.
  Task      281 on host nid005678 reporting.
  Task      282 on host nid005678 reporting.
  Task      283 on host nid005678 reporting.
  Task      284 on host nid005678 reporting.
  Task      285 on host nid005678 reporting.
  Task      286 on host nid005678 reporting.
  Task      287 on host nid005678 reporting.
  Task      288 on host nid005678 reporting.
  Task      289 on host nid005678 reporting.
  Task      290 on host nid005678 reporting.
  Task      291 on host nid005678 reporting.
  Task      292 on host nid005678 reporting.
  Task      293 on host nid005678 reporting.
  Task      294 on host nid005678 reporting.
  Task      295 on host nid005678 reporting.
  Task      296 on host nid005678 reporting.
  Task      297 on host nid005678 reporting.
  Task      298 on host nid005678 reporting.
  Task      299 on host nid005678 reporting.
  Task      300 on host nid005678 reporting.
  Task      301 on host nid005678 reporting.
  Task      302 on host nid005678 reporting.
  Task      303 on host nid005678 reporting.
  Task      304 on host nid005678 reporting.
  Task      305 on host nid005678 reporting.
  Task      306 on host nid005678 reporting.
  Task      307 on host nid005678 reporting.
  Task      308 on host nid005678 reporting.
  Task      309 on host nid005678 reporting.
  Task      310 on host nid005678 reporting.
  Task      311 on host nid005678 reporting.
  Task      312 on host nid005678 reporting.
  Task      313 on host nid005678 reporting.
  Task      314 on host nid005678 reporting.
  Task      315 on host nid005678 reporting.
  Task      316 on host nid005678 reporting.
  Task      317 on host nid005678 reporting.
  Task      318 on host nid005678 reporting.
  Task      319 on host nid005678 reporting.
  Task      320 on host nid005678 reporting.
  Task      321 on host nid005678 reporting.
  Task      322 on host nid005678 reporting.
  Task      323 on host nid005678 reporting.
  Task      324 on host nid005678 reporting.
  Task      325 on host nid005678 reporting.
  Task      326 on host nid005678 reporting.
  Task      327 on host nid005678 reporting.
  Task      328 on host nid005678 reporting.
  Task      329 on host nid005678 reporting.
  Task      330 on host nid005678 reporting.
  Task      331 on host nid005678 reporting.
  Task      332 on host nid005678 reporting.
  Task      333 on host nid005678 reporting.
  Task      334 on host nid005678 reporting.
  Task      335 on host nid005678 reporting.
  Task      336 on host nid005678 reporting.
  Task      337 on host nid005678 reporting.
  Task      338 on host nid005678 reporting.
  Task      339 on host nid005678 reporting.
  Task      340 on host nid005678 reporting.
  Task      341 on host nid005678 reporting.
  Task      342 on host nid005678 reporting.
  Task      343 on host nid005678 reporting.
  Task      344 on host nid005678 reporting.
  Task      345 on host nid005678 reporting.
  Task      346 on host nid005678 reporting.
  Task      347 on host nid005678 reporting.
  Task      348 on host nid005678 reporting.
  Task      349 on host nid005678 reporting.
  Task      350 on host nid005678 reporting.
  Task      351 on host nid005678 reporting.
  Task      352 on host nid005678 reporting.
  Task      353 on host nid005678 reporting.
  Task      354 on host nid005678 reporting.
  Task      355 on host nid005678 reporting.
  Task      356 on host nid005678 reporting.
  Task      357 on host nid005678 reporting.
  Task      358 on host nid005678 reporting.
  Task      359 on host nid005678 reporting.
  Task      360 on host nid005678 reporting.
  Task      361 on host nid005678 reporting.
  Task      362 on host nid005678 reporting.
  Task      363 on host nid005678 reporting.
  Task      364 on host nid005678 reporting.
  Task      365 on host nid005678 reporting.
  Task      366 on host nid005678 reporting.
  Task      367 on host nid005678 reporting.
  Task      368 on host nid005678 reporting.
  Task      369 on host nid005678 reporting.
  Task      370 on host nid005678 reporting.
  Task      371 on host nid005678 reporting.
  Task      372 on host nid005678 reporting.
  Task      373 on host nid005678 reporting.
  Task      374 on host nid005678 reporting.
  Task      375 on host nid005678 reporting.
  Task      376 on host nid005678 reporting.
  Task      377 on host nid005678 reporting.
  Task      378 on host nid005678 reporting.
  Task      379 on host nid005678 reporting.
  Task      380 on host nid005678 reporting.
  Task      381 on host nid005678 reporting.
  Task      382 on host nid005678 reporting.
  Task      383 on host nid005678 reporting.
  Task      384 on host nid005734 reporting.
  Task      385 on host nid005734 reporting.
  Task      386 on host nid005734 reporting.
  Task      387 on host nid005734 reporting.
  Task      388 on host nid005734 reporting.
  Task      389 on host nid005734 reporting.
  Task      390 on host nid005734 reporting.
  Task      391 on host nid005734 reporting.
  Task      392 on host nid005734 reporting.
  Task      393 on host nid005734 reporting.
  Task      394 on host nid005734 reporting.
  Task      395 on host nid005734 reporting.
  Task      396 on host nid005734 reporting.
  Task      397 on host nid005734 reporting.
  Task      398 on host nid005734 reporting.
  Task      399 on host nid005734 reporting.
  Task      400 on host nid005734 reporting.
  Task      401 on host nid005734 reporting.
  Task      402 on host nid005734 reporting.
  Task      403 on host nid005734 reporting.
  Task      404 on host nid005734 reporting.
  Task      405 on host nid005734 reporting.
  Task      406 on host nid005734 reporting.
  Task      407 on host nid005734 reporting.
  Task      408 on host nid005734 reporting.
  Task      409 on host nid005734 reporting.
  Task      410 on host nid005734 reporting.
  Task      411 on host nid005734 reporting.
  Task      412 on host nid005734 reporting.
  Task      413 on host nid005734 reporting.
  Task      414 on host nid005734 reporting.
  Task      415 on host nid005734 reporting.
  Task      416 on host nid005734 reporting.
  Task      417 on host nid005734 reporting.
  Task      418 on host nid005734 reporting.
  Task      419 on host nid005734 reporting.
  Task      420 on host nid005734 reporting.
  Task      421 on host nid005734 reporting.
  Task      422 on host nid005734 reporting.
  Task      423 on host nid005734 reporting.
  Task      424 on host nid005734 reporting.
  Task      425 on host nid005734 reporting.
  Task      426 on host nid005734 reporting.
  Task      427 on host nid005734 reporting.
  Task      428 on host nid005734 reporting.
  Task      429 on host nid005734 reporting.
  Task      430 on host nid005734 reporting.
  Task      431 on host nid005734 reporting.
  Task      432 on host nid005734 reporting.
  Task      433 on host nid005734 reporting.
  Task      434 on host nid005734 reporting.
  Task      435 on host nid005734 reporting.
  Task      436 on host nid005734 reporting.
  Task      437 on host nid005734 reporting.
  Task      438 on host nid005734 reporting.
  Task      439 on host nid005734 reporting.
  Task      440 on host nid005734 reporting.
  Task      441 on host nid005734 reporting.
  Task      442 on host nid005734 reporting.
  Task      443 on host nid005734 reporting.
  Task      444 on host nid005734 reporting.
  Task      445 on host nid005734 reporting.
  Task      446 on host nid005734 reporting.
  Task      447 on host nid005734 reporting.
  Task      448 on host nid005734 reporting.
  Task      449 on host nid005734 reporting.
  Task      450 on host nid005734 reporting.
  Task      451 on host nid005734 reporting.
  Task      452 on host nid005734 reporting.
  Task      453 on host nid005734 reporting.
  Task      454 on host nid005734 reporting.
  Task      455 on host nid005734 reporting.
  Task      456 on host nid005734 reporting.
  Task      457 on host nid005734 reporting.
  Task      458 on host nid005734 reporting.
  Task      459 on host nid005734 reporting.
  Task      460 on host nid005734 reporting.
  Task      461 on host nid005734 reporting.
  Task      462 on host nid005734 reporting.
  Task      463 on host nid005734 reporting.
  Task      464 on host nid005734 reporting.
  Task      465 on host nid005734 reporting.
  Task      466 on host nid005734 reporting.
  Task      467 on host nid005734 reporting.
  Task      468 on host nid005734 reporting.
  Task      469 on host nid005734 reporting.
  Task      470 on host nid005734 reporting.
  Task      471 on host nid005734 reporting.
  Task      472 on host nid005734 reporting.
  Task      473 on host nid005734 reporting.
  Task      474 on host nid005734 reporting.
  Task      475 on host nid005734 reporting.
  Task      476 on host nid005734 reporting.
  Task      477 on host nid005734 reporting.
  Task      478 on host nid005734 reporting.
  Task      479 on host nid005734 reporting.
  Task      480 on host nid005734 reporting.
  Task      481 on host nid005734 reporting.
  Task      482 on host nid005734 reporting.
  Task      483 on host nid005734 reporting.
  Task      484 on host nid005734 reporting.
  Task      485 on host nid005734 reporting.
  Task      486 on host nid005734 reporting.
  Task      487 on host nid005734 reporting.
  Task      488 on host nid005734 reporting.
  Task      489 on host nid005734 reporting.
  Task      490 on host nid005734 reporting.
  Task      491 on host nid005734 reporting.
  Task      492 on host nid005734 reporting.
  Task      493 on host nid005734 reporting.
  Task      494 on host nid005734 reporting.
  Task      495 on host nid005734 reporting.
  Task      496 on host nid005734 reporting.
  Task      497 on host nid005734 reporting.
  Task      498 on host nid005734 reporting.
  Task      499 on host nid005734 reporting.
  Task      500 on host nid005734 reporting.
  Task      501 on host nid005734 reporting.
  Task      502 on host nid005734 reporting.
  Task      503 on host nid005734 reporting.
  Task      504 on host nid005734 reporting.
  Task      505 on host nid005734 reporting.
  Task      506 on host nid005734 reporting.
  Task      507 on host nid005734 reporting.
  Task      508 on host nid005734 reporting.
  Task      509 on host nid005734 reporting.
  Task      510 on host nid005734 reporting.
  Task      511 on host nid005734 reporting.

  Performing system and environment tests:
  | Environment variable OMP_NUM_THREADS correctly set to 1.
  | Checking for ScaLAPACK...
  | Testing pdtran()...
  | All pdtran() tests passed.

  Obtaining array dimensions for all initial allocations:
  
  -----------------------------------------------------------------------
  Parsing control.in (first pass over file, find array dimensions only).
  The contents of control.in will be repeated verbatim below
  unless switched off by setting 'verbatim_writeout .false.' .
  in the first line of control.in .
  -----------------------------------------------------------------------
  
  #===============================================================================
  # FHI-aims file: ./control.in
  # Created using the Atomic Simulation Environment (ASE)
  # Sat Jan 28 22:47:46 2023
  #===============================================================================
  spin                               none
  relativistic                       atomic_zora scalar
  compute_forces                     .true.
  xc                                 pbe
  k_grid                             6 4 4
  occupation_type                    gaussian 0.1
  sc_accuracy_etot                   1e-06
  sc_accuracy_eev                    0.001
  sc_accuracy_rho                    1e-06
  sc_accuracy_forces                 0.0001
  #===============================================================================
  
  ################################################################################
  #
  #  FHI-aims code project
  #  VB, Fritz-Haber Institut, 2009
  #
  #  Suggested "light" defaults for Al atom (to be pasted into control.in file)
  #  Be sure to double-check any results obtained with these settings for post-processing,
  #  e.g., with the "tight" defaults and larger basis sets.
  #
  #  2020/09/08 Added f function to "light" after reinspection of Delta test outcomes.
  #             This was done for all of Al-Cl and is a tricky decision since it makes
  #             "light" calculations measurably more expensive for these elements.
  #             Nevertheless, outcomes for P, S, Cl (and to some extent, Si) appear
  #             to justify this choice.
  #
  ################################################################################
    species        Al
  #     global species definitions
      nucleus             13
      mass                26.9815386
  #
      l_hartree           4
  #
      cut_pot             3.5          1.5  1.0
      basis_dep_cutoff    1e-4
  #
      radial_base         41 5.0
      radial_multiplier   1
      angular_grids       specified
        division   0.6594  110
        division   0.8170  194
        division   0.9059  302
  #      division   1.0363  434
  #      division   1.1443  590
  #      division   1.2621  770
  #      division   2.8177  974
  #      outer_grid   974
        outer_grid   302
  ################################################################################
  #
  #  Definition of "minimal" basis
  #
  ################################################################################
  #     valence basis states
      valence      3  s   2.
      valence      3  p   1.
  #     ion occupancy
      ion_occ      3  s   1.
      ion_occ      2  p   6.
  ################################################################################
  #
  #  Suggested additional basis functions. For production calculations,
  #  uncomment them one after another (the most important basis functions are
  #  listed first).
  #
  #  Constructed for dimers: 2.0 A, 2.5 A, 3.0 A, 3.75 A, 4.5 A
  #
  ################################################################################
  #  "First tier" - improvements: -199.47 meV to -10.63 meV
       ionic 3 d auto
       ionic 3 p auto
       hydro 4 f 4.7
       ionic 3 s auto
  #  "Second tier" - improvements: -5.35 meV to -1.57 meV
  #     hydro 5 g 7
  #     hydro 3 d 6
  #     hydro 2 s 11.6
  #     hydro 2 p 0.9
  #  "Third tier" - improvements: -0.63 meV to -0.20 meV
  #     hydro 5 f 7.6
  #     hydro 4 p 7.2
  #     hydro 4 s 3.7
  #     hydro 4 d 7.6
  #  "Fourth tier" - improvements: -0.17 meV to -0.08 meV
  #     hydro 4 d 13.6
  #     hydro 5 g 11.2
  #     hydro 4 d 0.9
  #     hydro 1 s 0.4
  #     hydro 4 p 0.1
  #     hydro 5 f 9.8
  #  Further basis functions that fell out of the optimization - noise level...
  #     hydro 4 p 5
  
  ################################################################################
  #
  #  FHI-aims code project
  #  VB, Fritz-Haber Institut, 2009
  #
  #  Suggested "light" defaults for O atom (to be pasted into control.in file)
  #  Be sure to double-check any results obtained with these settings for post-processing,
  #  e.g., with the "tight" defaults and larger basis sets.
  #
  ################################################################################
    species        O
  #     global species definitions
      nucleus             8
      mass                15.9994
  #
      l_hartree           4
  #
      cut_pot             3.5  1.5  1.0
      basis_dep_cutoff    1e-4
  #
      radial_base         36 5.0
      radial_multiplier   1
       angular_grids specified
        division   0.2659   50
        division   0.4451  110
        division   0.6052  194
        division   0.7543  302
  #      division   0.8014  434
  #      division   0.8507  590
  #      division   0.8762  770
  #      division   0.9023  974
  #      division   1.2339 1202
  #      outer_grid 974
        outer_grid 302
  ################################################################################
  #
  #  Definition of "minimal" basis
  #
  ################################################################################
  #     valence basis states
      valence      2  s   2.
      valence      2  p   4.
  #     ion occupancy
      ion_occ      2  s   1.
      ion_occ      2  p   3.
  ################################################################################
  #
  #  Suggested additional basis functions. For production calculations,
  #  uncomment them one after another (the most important basis functions are
  #  listed first).
  #
  #  Constructed for dimers: 1.0 A, 1.208 A, 1.5 A, 2.0 A, 3.0 A
  #
  ################################################################################
  #  "First tier" - improvements: -699.05 meV to -159.38 meV
       hydro 2 p 1.8
       hydro 3 d 7.6
       hydro 3 s 6.4
  #  "Second tier" - improvements: -49.91 meV to -5.39 meV
  #     hydro 4 f 11.6
  #     hydro 3 p 6.2
  #     hydro 3 d 5.6
  #     hydro 5 g 17.6
  #     hydro 1 s 0.75
  #  "Third tier" - improvements: -2.83 meV to -0.50 meV
  #     ionic 2 p auto
  #     hydro 4 f 10.8
  #     hydro 4 d 4.7
  #     hydro 2 s 6.8
  #  "Fourth tier" - improvements: -0.40 meV to -0.12 meV
  #     hydro 3 p 5
  #     hydro 3 s 3.3
  #     hydro 5 g 15.6
  #     hydro 4 f 17.6
  #     hydro 4 d 14
  # Further basis functions - -0.08 meV and below
  #     hydro 3 s 2.1
  #     hydro 4 d 11.6
  #     hydro 3 p 16
  #     hydro 2 s 17.2
  
  -----------------------------------------------------------------------
  Completed first pass over input file control.in .
  -----------------------------------------------------------------------
  
  
  -----------------------------------------------------------------------
  Parsing geometry.in (first pass over file, find array dimensions only).
  The contents of geometry.in will be repeated verbatim below
  unless switched off by setting 'verbatim_writeout .false.' .
  in the first line of geometry.in .
  -----------------------------------------------------------------------
  
  #=======================================================
  # FHI-aims file: ./geometry.in
  # Created using the Atomic Simulation Environment (ASE)
  # Sat Jan 28 22:47:46 2023
  #=======================================================
  lattice_vector 5.5869999999999997 0.0000000000000000 0.0000000000000000
  lattice_vector 0.0000000000000000 8.4130000000000003 0.0000000000000000
  lattice_vector -0.0830782985384609 0.0000000000000000 8.0675722492154929
  atom_frac 0.3782473493501237 0.7499999998424269 0.1258725545245435 Al
  atom_frac 0.6217526506450536 0.2499999993753014 0.8741274454913543 Al
  atom_frac 0.8679040918964946 0.2500000000196470 0.4991171760304125 Al
  atom_frac 0.1320959081063270 0.7499999998500326 0.5008828239326302 Al
  atom_frac 0.8755268780569452 0.7500000011264535 0.1252976123164667 Al
  atom_frac 0.1244731219164122 0.2500000006129817 0.8747023876819582 Al
  atom_frac 0.6149348370525591 0.7499999994099575 0.7456050842853096 Al
  atom_frac 0.3850651630014654 0.2500000003516434 0.2543949157155490 Al
  atom_frac 0.3668357119649057 0.0754272647544335 0.6131093866467562 Al
  atom_frac 0.6331642877521093 0.5754272653570603 0.3868906133172610 Al
  atom_frac 0.6331642871142370 0.9245727345728795 0.3868906124317718 Al
  atom_frac 0.3668357131518624 0.4245727339472704 0.6131093876235635 Al
  atom_frac 0.1161247682081807 0.5788028513059345 0.8624635243709300 Al
  atom_frac 0.8838752315870813 0.0788028519260399 0.1375364754595174 Al
  atom_frac 0.8838752306701109 0.4211971499743858 0.1375364749804562 Al
  atom_frac 0.1161247695550091 0.9211971493485860 0.8624635251883842 Al
  atom_frac 0.8819570542229171 0.7500000003888763 0.8759950063022894 O
  atom_frac 0.1180429457730456 0.2500000009549160 0.1240049937056828 O
  atom_frac 0.6117411552081911 0.2499999985183495 0.6401825148291347 O
  atom_frac 0.3882588447953608 0.7499999991397497 0.3598174851553144 O
  atom_frac 0.3611042271221212 0.7499999996602293 0.8894081045402027 O
  atom_frac 0.6388957728829514 0.2500000006846259 0.1105918954663721 O
  atom_frac 0.1336992722265744 0.2499999992867858 0.6276015419657033 O
  atom_frac 0.8663007277629229 0.7500000000739236 0.3723984580321960 O
  atom_frac 0.8875158884698623 0.4058580169848053 0.8981646214797060 O
  atom_frac 0.1124841121664927 0.9058580169914833 0.1018353781474467 O
  atom_frac 0.1124841110964740 0.5941419842930206 0.1018353775485542 O
  atom_frac 0.8875158882552662 0.0941419842953754 0.8981646228430055 O
  atom_frac 0.6063860891749238 0.9186433228020863 0.6141933062087530 O
  atom_frac 0.3936139100853594 0.4186433235309958 0.3858066938781428 O
  atom_frac 0.3936139078849382 0.0813566754756789 0.3858066924484581 O
  atom_frac 0.6063860928489009 0.5813566747419405 0.6141933074540831 O
  atom_frac 0.3573671891346064 0.4062124053816216 0.8544735978661978 O
  atom_frac 0.6426328114616873 0.9062124064433335 0.1455264017676007 O
  atom_frac 0.6426328117704782 0.5937875948200543 0.1455264018133349 O
  atom_frac 0.3573671876205755 0.0937875937628442 0.8544735985554929 O
  atom_frac 0.1348371125414490 0.9175750323308266 0.6365539721145715 O
  atom_frac 0.8651628867657569 0.4175750328086864 0.3634460280904828 O
  atom_frac 0.8651628858203682 0.0824249676545727 0.3634460279155987 O
  atom_frac 0.1348371148798987 0.5824249672001842 0.6365539718748107 O
  
  -----------------------------------------------------------------------
  Completed first pass over input file geometry.in .
  -----------------------------------------------------------------------
  

  Basic array size parameters:
  | Number of species                 :        2
  | Number of atoms                   :       40
  | Number of lattice vectors         :        3
  | Max. basis fn. angular momentum   :        3
  | Max. atomic/ionic basis occupied n:        3
  | Max. number of basis fn. types    :        3
  | Max. radial fns per species/type  :        5
  | Max. logarithmic grid size        :     1340
  | Max. radial integration grid size :       41
  | Max. angular integration grid size:      302
  | Max. angular grid division number :        8
  | Radial grid for Hartree potential :     1340
  | Number of spin channels           :        1

------------------------------------------------------------
          Reading file control.in.
------------------------------------------------------------
  Spin treatment: No spin polarisation.
  Scalar relativistic treatment of kinetic energy: on-site free-atom approximation to ZORA.
  Forces will be computed.
  XC: Using PBE gradient-corrected functionals.
  Found k-point grid:         6         4         4
  Occupation type: Gaussian broadening, width =   0.100000E+00 eV.
  Convergence accuracy of total energy:  0.1000E-05
  Convergence accuracy of sum of eigenvalues:  0.1000E-02
  Convergence accuracy of self-consistent charge density:  0.1000E-05
  Convergence accuracy of forces:  0.1000E-03

  Reading configuration options for species Al                  .
  | Found nuclear charge :  13.0000
  | Found atomic mass :    26.981538600000000      amu
  | Found l_max for Hartree potential  :   4
  | Found cutoff potl. onset [A], width [A], scale factor :    3.50000    1.50000    1.00000
  | Threshold for basis-dependent cutoff potential is   0.100000E-03
  | Found data for basic radial integration grid :    41 points, outermost radius =    5.000 A
  | Found multiplier for basic radial grid :   1
  | Found angular grid specification: user-specified.
  | Specified grid contains     4 separate shells.
  | Check grid settings after all constraints further below.
  | Found free-atom valence shell :  3 s   2.000
  | Found free-atom valence shell :  3 p   1.000
  | Found free-ion valence shell :  3 s   1.000
  | Found free-ion valence shell :  2 p   6.000
  | Found ionic basis function :  3 d , default cutoff radius.
  | Found ionic basis function :  3 p , default cutoff radius.
  | Found hydrogenic basis function :  4 f   4.700
  | Found ionic basis function :  3 s , default cutoff radius.
  Species Al                  : Missing cutoff potential type.
  Defaulting to exp(1/x)/(1-x)^2 type cutoff potential.
  Species Al: No 'logarithmic' tag. Using default grid for free atom:
  | Default logarithmic grid data [bohr] : 0.1000E-03 0.1000E+03 0.1012E+01
  | Will include ionic basis functions of  2.0-fold positive Al                   ion.
  Species Al: On-site basis accuracy parameter (for Gram-Schmidt orthonormalisation) not specified.
  Using default value basis_acc =  0.1000000E-03.
  Species Al                  : Using default innermost maximum threshold i_radial=  2 for radial functions.
  Species Al                  : Default cutoff onset for free atom density etc. : 0.35000000E+01 AA.
  Species Al                  : Basic radial grid will be enhanced according to radial_multiplier =   1, to contain    41 grid points.

  Reading configuration options for species O                   .
  | Found nuclear charge :   8.0000
  | Found atomic mass :    15.999400000000000      amu
  | Found l_max for Hartree potential  :   4
  | Found cutoff potl. onset [A], width [A], scale factor :    3.50000    1.50000    1.00000
  | Threshold for basis-dependent cutoff potential is   0.100000E-03
  | Found data for basic radial integration grid :    36 points, outermost radius =    5.000 A
  | Found multiplier for basic radial grid :   1
  | Found angular grid specification: user-specified.
  | Specified grid contains     5 separate shells.
  | Check grid settings after all constraints further below.
  | Found free-atom valence shell :  2 s   2.000
  | Found free-atom valence shell :  2 p   4.000
  | Found free-ion valence shell :  2 s   1.000
  | Found free-ion valence shell :  2 p   3.000
  | Found hydrogenic basis function :  2 p   1.800
  | Found hydrogenic basis function :  3 d   7.600
  | Found hydrogenic basis function :  3 s   6.400
  Species O                   : Missing cutoff potential type.
  Defaulting to exp(1/x)/(1-x)^2 type cutoff potential.
  Species O : No 'logarithmic' tag. Using default grid for free atom:
  | Default logarithmic grid data [bohr] : 0.1000E-03 0.1000E+03 0.1012E+01
  Species O : On-site basis accuracy parameter (for Gram-Schmidt orthonormalisation) not specified.
  Using default value basis_acc =  0.1000000E-03.
  Species O                   : Using default innermost maximum threshold i_radial=  2 for radial functions.
  Species O                   : Default cutoff onset for free atom density etc. : 0.35000000E+01 AA.
  Species O                   : Basic radial grid will be enhanced according to radial_multiplier =   1, to contain    36 grid points.

  Finished reading input file 'control.in'.

------------------------------------------------------------


------------------------------------------------------------
          Reading geometry description geometry.in.
------------------------------------------------------------
  | The smallest distance between any two atoms is         1.77152740 AA.
  | The first atom of this pair is atom number                      8 .
  | The second atom of this pair is atom number                    30 .
  | Wigner-Seitz cell of the first atom image           0     0     0 .
  | (The Wigner-Seitz cell of the second atom is 0 0 0  by definition.)

  Symmetry information by spglib:
  | Precision set to  0.1E-04
  | Number of Operations  : 4
  | Space group           : 11
  | International         : P2_1/m
  | Schoenflies           : C2h^2
  Input structure read successfully.
  The structure contains       40 atoms,  and a total of        400.000 electrons.

  Input geometry:
  | Unit cell:
  |        5.58700000        0.00000000        0.00000000
  |        0.00000000        8.41300000        0.00000000
  |       -0.08307830        0.00000000        8.06757225
  | Atomic structure:
  |       Atom                x [A]            y [A]            z [A]
  |    1: Species Al            2.10281066        6.30975000        1.01548593
  |    2: Species Al            3.40111104        2.10324999        7.05208632
  |    3: Species Al            4.80751436        2.10325000        4.02666388
  |    4: Species Al            0.69640735        6.30975000        4.04090837
  |    5: Species Al            4.88115916        6.30975001        1.01084754
  |    6: Species Al            0.62276255        2.10325001        7.05672471
  |    7: Species Al            3.37369733        6.30975000        6.01522289
  |    8: Species Al            2.13022437        2.10325000        2.05234936
  |    9: Species Al            1.99857504        0.63456958        4.94630427
  |   10: Species Al            3.50534666        4.84106958        3.12126798
  |   11: Species Al            3.50534666        7.77843042        3.12126797
  |   12: Species Al            1.99857504        3.57193041        4.94630428
  |   13: Species Al            0.57713708        4.86946839        6.95798680
  |   14: Species Al            4.92678462        0.66296839        1.10958545
  |   15: Species Al            4.92678462        3.54353162        1.10958545
  |   16: Species Al            0.57713709        7.75003162        6.95798680
  |   17: Species O             4.85471789        6.30975000        7.06715300
  |   18: Species O             0.64920381        2.10325001        1.00041925
  |   19: Species O             3.36461256        2.10324999        5.16471869
  |   20: Species O             2.13930914        6.30974999        2.90285356
  |   21: Species O             1.94359880        6.30975000        7.17536414
  |   22: Species O             3.56032290        2.10325001        0.89220811
  |   23: Species O             0.69483777        2.10324999        5.06322078
  |   24: Species O             4.80908394        6.30975000        3.00435147
  |   25: Species O             4.88393328        3.41448350        7.24600798
  |   26: Species O             0.61998842        7.62098350        0.82156427
  |   27: Species O             0.61998842        4.99851651        0.82156427
  |   28: Species O             4.88393328        0.79201651        7.24600799
  |   29: Species O             3.33685295        7.72854627        4.95504887
  |   30: Species O             2.16706875        3.52204628        3.11252338
  |   31: Species O             2.16706874        0.68445371        3.11252337
  |   32: Species O             3.33685297        4.89095370        4.95504888
  |   33: Species O             1.92562227        3.41746497        6.89352749
  |   34: Species O             3.57829943        7.62396498        1.17404476
  |   35: Species O             3.57829943        4.99553504        1.17404476
  |   36: Species O             1.92562226        0.78903503        6.89352749
  |   37: Species O             0.70045113        7.71955875        5.13544516
  |   38: Species O             4.80347057        3.51305875        2.93212709
  |   39: Species O             4.80347057        0.69344125        2.93212709
  |   40: Species O             0.70045114        4.89994125        5.13544516

  Lattice parameters for 3D lattice (in Angstroms) :     5.587000    8.413000    8.068000
  Angle(s) between unit vectors (in degrees)       :    90.000000   90.590000   90.000000


  Quantities derived from the lattice vectors (in Angstrom^-1):
  | Reciprocal lattice vector 1:  1.124608  0.000000  0.011581
  | Reciprocal lattice vector 2:  0.000000  0.746842  0.000000
  | Reciprocal lattice vector 3: -0.000000  0.000000  0.778820
  | Unit cell volume                               :   0.379204E+03  Angstrom^3

  Fractional coordinates:
                         L1                L2                L3
       atom_frac         0.37824735        0.75000000        0.12587255  Al
       atom_frac         0.62175265        0.25000000        0.87412745  Al
       atom_frac         0.86790409        0.25000000        0.49911718  Al
       atom_frac         0.13209591        0.75000000        0.50088282  Al
       atom_frac         0.87552688        0.75000000        0.12529761  Al
       atom_frac         0.12447312        0.25000000        0.87470239  Al
       atom_frac         0.61493484        0.75000000        0.74560508  Al
       atom_frac         0.38506516        0.25000000        0.25439492  Al
       atom_frac         0.36683571        0.07542726        0.61310939  Al
       atom_frac         0.63316429        0.57542727        0.38689061  Al
       atom_frac         0.63316429        0.92457273        0.38689061  Al
       atom_frac         0.36683571        0.42457273        0.61310939  Al
       atom_frac         0.11612477        0.57880285        0.86246352  Al
       atom_frac         0.88387523        0.07880285        0.13753648  Al
       atom_frac         0.88387523        0.42119715        0.13753647  Al
       atom_frac         0.11612477        0.92119715        0.86246353  Al
       atom_frac         0.88195705        0.75000000        0.87599501  O
       atom_frac         0.11804295        0.25000000        0.12400499  O
       atom_frac         0.61174116        0.25000000        0.64018251  O
       atom_frac         0.38825884        0.75000000        0.35981749  O
       atom_frac         0.36110423        0.75000000        0.88940810  O
       atom_frac         0.63889577        0.25000000        0.11059190  O
       atom_frac         0.13369927        0.25000000        0.62760154  O
       atom_frac         0.86630073        0.75000000        0.37239846  O
       atom_frac         0.88751589        0.40585802        0.89816462  O
       atom_frac         0.11248411        0.90585802        0.10183538  O
       atom_frac         0.11248411        0.59414198        0.10183538  O
       atom_frac         0.88751589        0.09414198        0.89816462  O
       atom_frac         0.60638609        0.91864332        0.61419331  O
       atom_frac         0.39361391        0.41864332        0.38580669  O
       atom_frac         0.39361391        0.08135668        0.38580669  O
       atom_frac         0.60638609        0.58135667        0.61419331  O
       atom_frac         0.35736719        0.40621241        0.85447360  O
       atom_frac         0.64263281        0.90621241        0.14552640  O
       atom_frac         0.64263281        0.59378759        0.14552640  O
       atom_frac         0.35736719        0.09378759        0.85447360  O
       atom_frac         0.13483711        0.91757503        0.63655397  O
       atom_frac         0.86516289        0.41757503        0.36344603  O
       atom_frac         0.86516289        0.08242497        0.36344603  O
       atom_frac         0.13483711        0.58242497        0.63655397  O


  Finished reading input file 'control.in'.


------------------------------------------------------------
          Reading geometry description geometry.in.
------------------------------------------------------------

  Consistency checks for stacksize environment parameter are next.

  | Maximum stacksize for task 0: unlimited
  | Maximum stacksize for task 1: unlimited
  | Maximum stacksize for task 2: unlimited
  | Maximum stacksize for task 3: unlimited
  | Maximum stacksize for task 4: unlimited
  | Maximum stacksize for task 5: unlimited
  | Maximum stacksize for task 6: unlimited
  | Maximum stacksize for task 7: unlimited
  | Maximum stacksize for task 8: unlimited
  | Maximum stacksize for task 9: unlimited
  | Maximum stacksize for task 10: unlimited
  | Maximum stacksize for task 11: unlimited
  | Maximum stacksize for task 12: unlimited
  | Maximum stacksize for task 13: unlimited
  | Maximum stacksize for task 14: unlimited
  | Maximum stacksize for task 15: unlimited
  | Maximum stacksize for task 16: unlimited
  | Maximum stacksize for task 17: unlimited
  | Maximum stacksize for task 18: unlimited
  | Maximum stacksize for task 19: unlimited
  | Maximum stacksize for task 20: unlimited
  | Maximum stacksize for task 21: unlimited
  | Maximum stacksize for task 22: unlimited
  | Maximum stacksize for task 23: unlimited
  | Maximum stacksize for task 24: unlimited
  | Maximum stacksize for task 25: unlimited
  | Maximum stacksize for task 26: unlimited
  | Maximum stacksize for task 27: unlimited
  | Maximum stacksize for task 28: unlimited
  | Maximum stacksize for task 29: unlimited
  | Maximum stacksize for task 30: unlimited
  | Maximum stacksize for task 31: unlimited
  | Maximum stacksize for task 32: unlimited
  | Maximum stacksize for task 33: unlimited
  | Maximum stacksize for task 34: unlimited
  | Maximum stacksize for task 35: unlimited
  | Maximum stacksize for task 36: unlimited
  | Maximum stacksize for task 37: unlimited
  | Maximum stacksize for task 38: unlimited
  | Maximum stacksize for task 39: unlimited
  | Maximum stacksize for task 40: unlimited
  | Maximum stacksize for task 41: unlimited
  | Maximum stacksize for task 42: unlimited
  | Maximum stacksize for task 43: unlimited
  | Maximum stacksize for task 44: unlimited
  | Maximum stacksize for task 45: unlimited
  | Maximum stacksize for task 46: unlimited
  | Maximum stacksize for task 47: unlimited
  | Maximum stacksize for task 48: unlimited
  | Maximum stacksize for task 49: unlimited
  | Maximum stacksize for task 50: unlimited
  | Maximum stacksize for task 51: unlimited
  | Maximum stacksize for task 52: unlimited
  | Maximum stacksize for task 53: unlimited
  | Maximum stacksize for task 54: unlimited
  | Maximum stacksize for task 55: unlimited
  | Maximum stacksize for task 56: unlimited
  | Maximum stacksize for task 57: unlimited
  | Maximum stacksize for task 58: unlimited
  | Maximum stacksize for task 59: unlimited
  | Maximum stacksize for task 60: unlimited
  | Maximum stacksize for task 61: unlimited
  | Maximum stacksize for task 62: unlimited
  | Maximum stacksize for task 63: unlimited
  | Maximum stacksize for task 64: unlimited
  | Maximum stacksize for task 65: unlimited
  | Maximum stacksize for task 66: unlimited
  | Maximum stacksize for task 67: unlimited
  | Maximum stacksize for task 68: unlimited
  | Maximum stacksize for task 69: unlimited
  | Maximum stacksize for task 70: unlimited
  | Maximum stacksize for task 71: unlimited
  | Maximum stacksize for task 72: unlimited
  | Maximum stacksize for task 73: unlimited
  | Maximum stacksize for task 74: unlimited
  | Maximum stacksize for task 75: unlimited
  | Maximum stacksize for task 76: unlimited
  | Maximum stacksize for task 77: unlimited
  | Maximum stacksize for task 78: unlimited
  | Maximum stacksize for task 79: unlimited
  | Maximum stacksize for task 80: unlimited
  | Maximum stacksize for task 81: unlimited
  | Maximum stacksize for task 82: unlimited
  | Maximum stacksize for task 83: unlimited
  | Maximum stacksize for task 84: unlimited
  | Maximum stacksize for task 85: unlimited
  | Maximum stacksize for task 86: unlimited
  | Maximum stacksize for task 87: unlimited
  | Maximum stacksize for task 88: unlimited
  | Maximum stacksize for task 89: unlimited
  | Maximum stacksize for task 90: unlimited
  | Maximum stacksize for task 91: unlimited
  | Maximum stacksize for task 92: unlimited
  | Maximum stacksize for task 93: unlimited
  | Maximum stacksize for task 94: unlimited
  | Maximum stacksize for task 95: unlimited
  | Maximum stacksize for task 96: unlimited
  | Maximum stacksize for task 97: unlimited
  | Maximum stacksize for task 98: unlimited
  | Maximum stacksize for task 99: unlimited
  | Maximum stacksize for task 100: unlimited
  | Maximum stacksize for task 101: unlimited
  | Maximum stacksize for task 102: unlimited
  | Maximum stacksize for task 103: unlimited
  | Maximum stacksize for task 104: unlimited
  | Maximum stacksize for task 105: unlimited
  | Maximum stacksize for task 106: unlimited
  | Maximum stacksize for task 107: unlimited
  | Maximum stacksize for task 108: unlimited
  | Maximum stacksize for task 109: unlimited
  | Maximum stacksize for task 110: unlimited
  | Maximum stacksize for task 111: unlimited
  | Maximum stacksize for task 112: unlimited
  | Maximum stacksize for task 113: unlimited
  | Maximum stacksize for task 114: unlimited
  | Maximum stacksize for task 115: unlimited
  | Maximum stacksize for task 116: unlimited
  | Maximum stacksize for task 117: unlimited
  | Maximum stacksize for task 118: unlimited
  | Maximum stacksize for task 119: unlimited
  | Maximum stacksize for task 120: unlimited
  | Maximum stacksize for task 121: unlimited
  | Maximum stacksize for task 122: unlimited
  | Maximum stacksize for task 123: unlimited
  | Maximum stacksize for task 124: unlimited
  | Maximum stacksize for task 125: unlimited
  | Maximum stacksize for task 126: unlimited
  | Maximum stacksize for task 127: unlimited
  | Maximum stacksize for task 128: unlimited
  | Maximum stacksize for task 129: unlimited
  | Maximum stacksize for task 130: unlimited
  | Maximum stacksize for task 131: unlimited
  | Maximum stacksize for task 132: unlimited
  | Maximum stacksize for task 133: unlimited
  | Maximum stacksize for task 134: unlimited
  | Maximum stacksize for task 135: unlimited
  | Maximum stacksize for task 136: unlimited
  | Maximum stacksize for task 137: unlimited
  | Maximum stacksize for task 138: unlimited
  | Maximum stacksize for task 139: unlimited
  | Maximum stacksize for task 140: unlimited
  | Maximum stacksize for task 141: unlimited
  | Maximum stacksize for task 142: unlimited
  | Maximum stacksize for task 143: unlimited
  | Maximum stacksize for task 144: unlimited
  | Maximum stacksize for task 145: unlimited
  | Maximum stacksize for task 146: unlimited
  | Maximum stacksize for task 147: unlimited
  | Maximum stacksize for task 148: unlimited
  | Maximum stacksize for task 149: unlimited
  | Maximum stacksize for task 150: unlimited
  | Maximum stacksize for task 151: unlimited
  | Maximum stacksize for task 152: unlimited
  | Maximum stacksize for task 153: unlimited
  | Maximum stacksize for task 154: unlimited
  | Maximum stacksize for task 155: unlimited
  | Maximum stacksize for task 156: unlimited
  | Maximum stacksize for task 157: unlimited
  | Maximum stacksize for task 158: unlimited
  | Maximum stacksize for task 159: unlimited
  | Maximum stacksize for task 160: unlimited
  | Maximum stacksize for task 161: unlimited
  | Maximum stacksize for task 162: unlimited
  | Maximum stacksize for task 163: unlimited
  | Maximum stacksize for task 164: unlimited
  | Maximum stacksize for task 165: unlimited
  | Maximum stacksize for task 166: unlimited
  | Maximum stacksize for task 167: unlimited
  | Maximum stacksize for task 168: unlimited
  | Maximum stacksize for task 169: unlimited
  | Maximum stacksize for task 170: unlimited
  | Maximum stacksize for task 171: unlimited
  | Maximum stacksize for task 172: unlimited
  | Maximum stacksize for task 173: unlimited
  | Maximum stacksize for task 174: unlimited
  | Maximum stacksize for task 175: unlimited
  | Maximum stacksize for task 176: unlimited
  | Maximum stacksize for task 177: unlimited
  | Maximum stacksize for task 178: unlimited
  | Maximum stacksize for task 179: unlimited
  | Maximum stacksize for task 180: unlimited
  | Maximum stacksize for task 181: unlimited
  | Maximum stacksize for task 182: unlimited
  | Maximum stacksize for task 183: unlimited
  | Maximum stacksize for task 184: unlimited
  | Maximum stacksize for task 185: unlimited
  | Maximum stacksize for task 186: unlimited
  | Maximum stacksize for task 187: unlimited
  | Maximum stacksize for task 188: unlimited
  | Maximum stacksize for task 189: unlimited
  | Maximum stacksize for task 190: unlimited
  | Maximum stacksize for task 191: unlimited
  | Maximum stacksize for task 192: unlimited
  | Maximum stacksize for task 193: unlimited
  | Maximum stacksize for task 194: unlimited
  | Maximum stacksize for task 195: unlimited
  | Maximum stacksize for task 196: unlimited
  | Maximum stacksize for task 197: unlimited
  | Maximum stacksize for task 198: unlimited
  | Maximum stacksize for task 199: unlimited
  | Maximum stacksize for task 200: unlimited
  | Maximum stacksize for task 201: unlimited
  | Maximum stacksize for task 202: unlimited
  | Maximum stacksize for task 203: unlimited
  | Maximum stacksize for task 204: unlimited
  | Maximum stacksize for task 205: unlimited
  | Maximum stacksize for task 206: unlimited
  | Maximum stacksize for task 207: unlimited
  | Maximum stacksize for task 208: unlimited
  | Maximum stacksize for task 209: unlimited
  | Maximum stacksize for task 210: unlimited
  | Maximum stacksize for task 211: unlimited
  | Maximum stacksize for task 212: unlimited
  | Maximum stacksize for task 213: unlimited
  | Maximum stacksize for task 214: unlimited
  | Maximum stacksize for task 215: unlimited
  | Maximum stacksize for task 216: unlimited
  | Maximum stacksize for task 217: unlimited
  | Maximum stacksize for task 218: unlimited
  | Maximum stacksize for task 219: unlimited
  | Maximum stacksize for task 220: unlimited
  | Maximum stacksize for task 221: unlimited
  | Maximum stacksize for task 222: unlimited
  | Maximum stacksize for task 223: unlimited
  | Maximum stacksize for task 224: unlimited
  | Maximum stacksize for task 225: unlimited
  | Maximum stacksize for task 226: unlimited
  | Maximum stacksize for task 227: unlimited
  | Maximum stacksize for task 228: unlimited
  | Maximum stacksize for task 229: unlimited
  | Maximum stacksize for task 230: unlimited
  | Maximum stacksize for task 231: unlimited
  | Maximum stacksize for task 232: unlimited
  | Maximum stacksize for task 233: unlimited
  | Maximum stacksize for task 234: unlimited
  | Maximum stacksize for task 235: unlimited
  | Maximum stacksize for task 236: unlimited
  | Maximum stacksize for task 237: unlimited
  | Maximum stacksize for task 238: unlimited
  | Maximum stacksize for task 239: unlimited
  | Maximum stacksize for task 240: unlimited
  | Maximum stacksize for task 241: unlimited
  | Maximum stacksize for task 242: unlimited
  | Maximum stacksize for task 243: unlimited
  | Maximum stacksize for task 244: unlimited
  | Maximum stacksize for task 245: unlimited
  | Maximum stacksize for task 246: unlimited
  | Maximum stacksize for task 247: unlimited
  | Maximum stacksize for task 248: unlimited
  | Maximum stacksize for task 249: unlimited
  | Maximum stacksize for task 250: unlimited
  | Maximum stacksize for task 251: unlimited
  | Maximum stacksize for task 252: unlimited
  | Maximum stacksize for task 253: unlimited
  | Maximum stacksize for task 254: unlimited
  | Maximum stacksize for task 255: unlimited
  | Maximum stacksize for task 256: unlimited
  | Maximum stacksize for task 257: unlimited
  | Maximum stacksize for task 258: unlimited
  | Maximum stacksize for task 259: unlimited
  | Maximum stacksize for task 260: unlimited
  | Maximum stacksize for task 261: unlimited
  | Maximum stacksize for task 262: unlimited
  | Maximum stacksize for task 263: unlimited
  | Maximum stacksize for task 264: unlimited
  | Maximum stacksize for task 265: unlimited
  | Maximum stacksize for task 266: unlimited
  | Maximum stacksize for task 267: unlimited
  | Maximum stacksize for task 268: unlimited
  | Maximum stacksize for task 269: unlimited
  | Maximum stacksize for task 270: unlimited
  | Maximum stacksize for task 271: unlimited
  | Maximum stacksize for task 272: unlimited
  | Maximum stacksize for task 273: unlimited
  | Maximum stacksize for task 274: unlimited
  | Maximum stacksize for task 275: unlimited
  | Maximum stacksize for task 276: unlimited
  | Maximum stacksize for task 277: unlimited
  | Maximum stacksize for task 278: unlimited
  | Maximum stacksize for task 279: unlimited
  | Maximum stacksize for task 280: unlimited
  | Maximum stacksize for task 281: unlimited
  | Maximum stacksize for task 282: unlimited
  | Maximum stacksize for task 283: unlimited
  | Maximum stacksize for task 284: unlimited
  | Maximum stacksize for task 285: unlimited
  | Maximum stacksize for task 286: unlimited
  | Maximum stacksize for task 287: unlimited
  | Maximum stacksize for task 288: unlimited
  | Maximum stacksize for task 289: unlimited
  | Maximum stacksize for task 290: unlimited
  | Maximum stacksize for task 291: unlimited
  | Maximum stacksize for task 292: unlimited
  | Maximum stacksize for task 293: unlimited
  | Maximum stacksize for task 294: unlimited
  | Maximum stacksize for task 295: unlimited
  | Maximum stacksize for task 296: unlimited
  | Maximum stacksize for task 297: unlimited
  | Maximum stacksize for task 298: unlimited
  | Maximum stacksize for task 299: unlimited
  | Maximum stacksize for task 300: unlimited
  | Maximum stacksize for task 301: unlimited
  | Maximum stacksize for task 302: unlimited
  | Maximum stacksize for task 303: unlimited
  | Maximum stacksize for task 304: unlimited
  | Maximum stacksize for task 305: unlimited
  | Maximum stacksize for task 306: unlimited
  | Maximum stacksize for task 307: unlimited
  | Maximum stacksize for task 308: unlimited
  | Maximum stacksize for task 309: unlimited
  | Maximum stacksize for task 310: unlimited
  | Maximum stacksize for task 311: unlimited
  | Maximum stacksize for task 312: unlimited
  | Maximum stacksize for task 313: unlimited
  | Maximum stacksize for task 314: unlimited
  | Maximum stacksize for task 315: unlimited
  | Maximum stacksize for task 316: unlimited
  | Maximum stacksize for task 317: unlimited
  | Maximum stacksize for task 318: unlimited
  | Maximum stacksize for task 319: unlimited
  | Maximum stacksize for task 320: unlimited
  | Maximum stacksize for task 321: unlimited
  | Maximum stacksize for task 322: unlimited
  | Maximum stacksize for task 323: unlimited
  | Maximum stacksize for task 324: unlimited
  | Maximum stacksize for task 325: unlimited
  | Maximum stacksize for task 326: unlimited
  | Maximum stacksize for task 327: unlimited
  | Maximum stacksize for task 328: unlimited
  | Maximum stacksize for task 329: unlimited
  | Maximum stacksize for task 330: unlimited
  | Maximum stacksize for task 331: unlimited
  | Maximum stacksize for task 332: unlimited
  | Maximum stacksize for task 333: unlimited
  | Maximum stacksize for task 334: unlimited
  | Maximum stacksize for task 335: unlimited
  | Maximum stacksize for task 336: unlimited
  | Maximum stacksize for task 337: unlimited
  | Maximum stacksize for task 338: unlimited
  | Maximum stacksize for task 339: unlimited
  | Maximum stacksize for task 340: unlimited
  | Maximum stacksize for task 341: unlimited
  | Maximum stacksize for task 342: unlimited
  | Maximum stacksize for task 343: unlimited
  | Maximum stacksize for task 344: unlimited
  | Maximum stacksize for task 345: unlimited
  | Maximum stacksize for task 346: unlimited
  | Maximum stacksize for task 347: unlimited
  | Maximum stacksize for task 348: unlimited
  | Maximum stacksize for task 349: unlimited
  | Maximum stacksize for task 350: unlimited
  | Maximum stacksize for task 351: unlimited
  | Maximum stacksize for task 352: unlimited
  | Maximum stacksize for task 353: unlimited
  | Maximum stacksize for task 354: unlimited
  | Maximum stacksize for task 355: unlimited
  | Maximum stacksize for task 356: unlimited
  | Maximum stacksize for task 357: unlimited
  | Maximum stacksize for task 358: unlimited
  | Maximum stacksize for task 359: unlimited
  | Maximum stacksize for task 360: unlimited
  | Maximum stacksize for task 361: unlimited
  | Maximum stacksize for task 362: unlimited
  | Maximum stacksize for task 363: unlimited
  | Maximum stacksize for task 364: unlimited
  | Maximum stacksize for task 365: unlimited
  | Maximum stacksize for task 366: unlimited
  | Maximum stacksize for task 367: unlimited
  | Maximum stacksize for task 368: unlimited
  | Maximum stacksize for task 369: unlimited
  | Maximum stacksize for task 370: unlimited
  | Maximum stacksize for task 371: unlimited
  | Maximum stacksize for task 372: unlimited
  | Maximum stacksize for task 373: unlimited
  | Maximum stacksize for task 374: unlimited
  | Maximum stacksize for task 375: unlimited
  | Maximum stacksize for task 376: unlimited
  | Maximum stacksize for task 377: unlimited
  | Maximum stacksize for task 378: unlimited
  | Maximum stacksize for task 379: unlimited
  | Maximum stacksize for task 380: unlimited
  | Maximum stacksize for task 381: unlimited
  | Maximum stacksize for task 382: unlimited
  | Maximum stacksize for task 383: unlimited
  | Maximum stacksize for task 384: unlimited
  | Maximum stacksize for task 385: unlimited
  | Maximum stacksize for task 386: unlimited
  | Maximum stacksize for task 387: unlimited
  | Maximum stacksize for task 388: unlimited
  | Maximum stacksize for task 389: unlimited
  | Maximum stacksize for task 390: unlimited
  | Maximum stacksize for task 391: unlimited
  | Maximum stacksize for task 392: unlimited
  | Maximum stacksize for task 393: unlimited
  | Maximum stacksize for task 394: unlimited
  | Maximum stacksize for task 395: unlimited
  | Maximum stacksize for task 396: unlimited
  | Maximum stacksize for task 397: unlimited
  | Maximum stacksize for task 398: unlimited
  | Maximum stacksize for task 399: unlimited
  | Maximum stacksize for task 400: unlimited
  | Maximum stacksize for task 401: unlimited
  | Maximum stacksize for task 402: unlimited
  | Maximum stacksize for task 403: unlimited
  | Maximum stacksize for task 404: unlimited
  | Maximum stacksize for task 405: unlimited
  | Maximum stacksize for task 406: unlimited
  | Maximum stacksize for task 407: unlimited
  | Maximum stacksize for task 408: unlimited
  | Maximum stacksize for task 409: unlimited
  | Maximum stacksize for task 410: unlimited
  | Maximum stacksize for task 411: unlimited
  | Maximum stacksize for task 412: unlimited
  | Maximum stacksize for task 413: unlimited
  | Maximum stacksize for task 414: unlimited
  | Maximum stacksize for task 415: unlimited
  | Maximum stacksize for task 416: unlimited
  | Maximum stacksize for task 417: unlimited
  | Maximum stacksize for task 418: unlimited
  | Maximum stacksize for task 419: unlimited
  | Maximum stacksize for task 420: unlimited
  | Maximum stacksize for task 421: unlimited
  | Maximum stacksize for task 422: unlimited
  | Maximum stacksize for task 423: unlimited
  | Maximum stacksize for task 424: unlimited
  | Maximum stacksize for task 425: unlimited
  | Maximum stacksize for task 426: unlimited
  | Maximum stacksize for task 427: unlimited
  | Maximum stacksize for task 428: unlimited
  | Maximum stacksize for task 429: unlimited
  | Maximum stacksize for task 430: unlimited
  | Maximum stacksize for task 431: unlimited
  | Maximum stacksize for task 432: unlimited
  | Maximum stacksize for task 433: unlimited
  | Maximum stacksize for task 434: unlimited
  | Maximum stacksize for task 435: unlimited
  | Maximum stacksize for task 436: unlimited
  | Maximum stacksize for task 437: unlimited
  | Maximum stacksize for task 438: unlimited
  | Maximum stacksize for task 439: unlimited
  | Maximum stacksize for task 440: unlimited
  | Maximum stacksize for task 441: unlimited
  | Maximum stacksize for task 442: unlimited
  | Maximum stacksize for task 443: unlimited
  | Maximum stacksize for task 444: unlimited
  | Maximum stacksize for task 445: unlimited
  | Maximum stacksize for task 446: unlimited
  | Maximum stacksize for task 447: unlimited
  | Maximum stacksize for task 448: unlimited
  | Maximum stacksize for task 449: unlimited
  | Maximum stacksize for task 450: unlimited
  | Maximum stacksize for task 451: unlimited
  | Maximum stacksize for task 452: unlimited
  | Maximum stacksize for task 453: unlimited
  | Maximum stacksize for task 454: unlimited
  | Maximum stacksize for task 455: unlimited
  | Maximum stacksize for task 456: unlimited
  | Maximum stacksize for task 457: unlimited
  | Maximum stacksize for task 458: unlimited
  | Maximum stacksize for task 459: unlimited
  | Maximum stacksize for task 460: unlimited
  | Maximum stacksize for task 461: unlimited
  | Maximum stacksize for task 462: unlimited
  | Maximum stacksize for task 463: unlimited
  | Maximum stacksize for task 464: unlimited
  | Maximum stacksize for task 465: unlimited
  | Maximum stacksize for task 466: unlimited
  | Maximum stacksize for task 467: unlimited
  | Maximum stacksize for task 468: unlimited
  | Maximum stacksize for task 469: unlimited
  | Maximum stacksize for task 470: unlimited
  | Maximum stacksize for task 471: unlimited
  | Maximum stacksize for task 472: unlimited
  | Maximum stacksize for task 473: unlimited
  | Maximum stacksize for task 474: unlimited
  | Maximum stacksize for task 475: unlimited
  | Maximum stacksize for task 476: unlimited
  | Maximum stacksize for task 477: unlimited
  | Maximum stacksize for task 478: unlimited
  | Maximum stacksize for task 479: unlimited
  | Maximum stacksize for task 480: unlimited
  | Maximum stacksize for task 481: unlimited
  | Maximum stacksize for task 482: unlimited
  | Maximum stacksize for task 483: unlimited
  | Maximum stacksize for task 484: unlimited
  | Maximum stacksize for task 485: unlimited
  | Maximum stacksize for task 486: unlimited
  | Maximum stacksize for task 487: unlimited
  | Maximum stacksize for task 488: unlimited
  | Maximum stacksize for task 489: unlimited
  | Maximum stacksize for task 490: unlimited
  | Maximum stacksize for task 491: unlimited
  | Maximum stacksize for task 492: unlimited
  | Maximum stacksize for task 493: unlimited
  | Maximum stacksize for task 494: unlimited
  | Maximum stacksize for task 495: unlimited
  | Maximum stacksize for task 496: unlimited
  | Maximum stacksize for task 497: unlimited
  | Maximum stacksize for task 498: unlimited
  | Maximum stacksize for task 499: unlimited
  | Maximum stacksize for task 500: unlimited
  | Maximum stacksize for task 501: unlimited
  | Maximum stacksize for task 502: unlimited
  | Maximum stacksize for task 503: unlimited
  | Maximum stacksize for task 504: unlimited
  | Maximum stacksize for task 505: unlimited
  | Maximum stacksize for task 506: unlimited
  | Maximum stacksize for task 507: unlimited
  | Maximum stacksize for task 508: unlimited
  | Maximum stacksize for task 509: unlimited
  | Maximum stacksize for task 510: unlimited
  | Maximum stacksize for task 511: unlimited
  | Current stacksize for task 0: unlimited
  | Current stacksize for task 1: unlimited
  | Current stacksize for task 2: unlimited
  | Current stacksize for task 3: unlimited
  | Current stacksize for task 4: unlimited
  | Current stacksize for task 5: unlimited
  | Current stacksize for task 6: unlimited
  | Current stacksize for task 7: unlimited
  | Current stacksize for task 8: unlimited
  | Current stacksize for task 9: unlimited
  | Current stacksize for task 10: unlimited
  | Current stacksize for task 11: unlimited
  | Current stacksize for task 12: unlimited
  | Current stacksize for task 13: unlimited
  | Current stacksize for task 14: unlimited
  | Current stacksize for task 15: unlimited
  | Current stacksize for task 16: unlimited
  | Current stacksize for task 17: unlimited
  | Current stacksize for task 18: unlimited
  | Current stacksize for task 19: unlimited
  | Current stacksize for task 20: unlimited
  | Current stacksize for task 21: unlimited
  | Current stacksize for task 22: unlimited
  | Current stacksize for task 23: unlimited
  | Current stacksize for task 24: unlimited
  | Current stacksize for task 25: unlimited
  | Current stacksize for task 26: unlimited
  | Current stacksize for task 27: unlimited
  | Current stacksize for task 28: unlimited
  | Current stacksize for task 29: unlimited
  | Current stacksize for task 30: unlimited
  | Current stacksize for task 31: unlimited
  | Current stacksize for task 32: unlimited
  | Current stacksize for task 33: unlimited
  | Current stacksize for task 34: unlimited
  | Current stacksize for task 35: unlimited
  | Current stacksize for task 36: unlimited
  | Current stacksize for task 37: unlimited
  | Current stacksize for task 38: unlimited
  | Current stacksize for task 39: unlimited
  | Current stacksize for task 40: unlimited
  | Current stacksize for task 41: unlimited
  | Current stacksize for task 42: unlimited
  | Current stacksize for task 43: unlimited
  | Current stacksize for task 44: unlimited
  | Current stacksize for task 45: unlimited
  | Current stacksize for task 46: unlimited
  | Current stacksize for task 47: unlimited
  | Current stacksize for task 48: unlimited
  | Current stacksize for task 49: unlimited
  | Current stacksize for task 50: unlimited
  | Current stacksize for task 51: unlimited
  | Current stacksize for task 52: unlimited
  | Current stacksize for task 53: unlimited
  | Current stacksize for task 54: unlimited
  | Current stacksize for task 55: unlimited
  | Current stacksize for task 56: unlimited
  | Current stacksize for task 57: unlimited
  | Current stacksize for task 58: unlimited
  | Current stacksize for task 59: unlimited
  | Current stacksize for task 60: unlimited
  | Current stacksize for task 61: unlimited
  | Current stacksize for task 62: unlimited
  | Current stacksize for task 63: unlimited
  | Current stacksize for task 64: unlimited
  | Current stacksize for task 65: unlimited
  | Current stacksize for task 66: unlimited
  | Current stacksize for task 67: unlimited
  | Current stacksize for task 68: unlimited
  | Current stacksize for task 69: unlimited
  | Current stacksize for task 70: unlimited
  | Current stacksize for task 71: unlimited
  | Current stacksize for task 72: unlimited
  | Current stacksize for task 73: unlimited
  | Current stacksize for task 74: unlimited
  | Current stacksize for task 75: unlimited
  | Current stacksize for task 76: unlimited
  | Current stacksize for task 77: unlimited
  | Current stacksize for task 78: unlimited
  | Current stacksize for task 79: unlimited
  | Current stacksize for task 80: unlimited
  | Current stacksize for task 81: unlimited
  | Current stacksize for task 82: unlimited
  | Current stacksize for task 83: unlimited
  | Current stacksize for task 84: unlimited
  | Current stacksize for task 85: unlimited
  | Current stacksize for task 86: unlimited
  | Current stacksize for task 87: unlimited
  | Current stacksize for task 88: unlimited
  | Current stacksize for task 89: unlimited
  | Current stacksize for task 90: unlimited
  | Current stacksize for task 91: unlimited
  | Current stacksize for task 92: unlimited
  | Current stacksize for task 93: unlimited
  | Current stacksize for task 94: unlimited
  | Current stacksize for task 95: unlimited
  | Current stacksize for task 96: unlimited
  | Current stacksize for task 97: unlimited
  | Current stacksize for task 98: unlimited
  | Current stacksize for task 99: unlimited
  | Current stacksize for task 100: unlimited
  | Current stacksize for task 101: unlimited
  | Current stacksize for task 102: unlimited
  | Current stacksize for task 103: unlimited
  | Current stacksize for task 104: unlimited
  | Current stacksize for task 105: unlimited
  | Current stacksize for task 106: unlimited
  | Current stacksize for task 107: unlimited
  | Current stacksize for task 108: unlimited
  | Current stacksize for task 109: unlimited
  | Current stacksize for task 110: unlimited
  | Current stacksize for task 111: unlimited
  | Current stacksize for task 112: unlimited
  | Current stacksize for task 113: unlimited
  | Current stacksize for task 114: unlimited
  | Current stacksize for task 115: unlimited
  | Current stacksize for task 116: unlimited
  | Current stacksize for task 117: unlimited
  | Current stacksize for task 118: unlimited
  | Current stacksize for task 119: unlimited
  | Current stacksize for task 120: unlimited
  | Current stacksize for task 121: unlimited
  | Current stacksize for task 122: unlimited
  | Current stacksize for task 123: unlimited
  | Current stacksize for task 124: unlimited
  | Current stacksize for task 125: unlimited
  | Current stacksize for task 126: unlimited
  | Current stacksize for task 127: unlimited
  | Current stacksize for task 128: unlimited
  | Current stacksize for task 129: unlimited
  | Current stacksize for task 130: unlimited
  | Current stacksize for task 131: unlimited
  | Current stacksize for task 132: unlimited
  | Current stacksize for task 133: unlimited
  | Current stacksize for task 134: unlimited
  | Current stacksize for task 135: unlimited
  | Current stacksize for task 136: unlimited
  | Current stacksize for task 137: unlimited
  | Current stacksize for task 138: unlimited
  | Current stacksize for task 139: unlimited
[...]
    243       0.00000           0.135241            3.68009
    244       0.00000           0.144570            3.93396
    245       0.00000           0.146757            3.99347
    246       0.00000           0.150824            4.10412
    247       0.00000           0.159349            4.33611
    248       0.00000           0.164513            4.47664
    249       0.00000           0.164534            4.47719
    250       0.00000           0.167229            4.55053
    251       0.00000           0.167237            4.55076
    252       0.00000           0.168359            4.58129
    253       0.00000           0.174051            4.73616
    254       0.00000           0.178374            4.85380
    255       0.00000           0.185241            5.04066
    256       0.00000           0.186287            5.06913
    257       0.00000           0.187301            5.09671
    258       0.00000           0.187898            5.11297
    259       0.00000           0.191430            5.20908
    260       0.00000           0.204437            5.56300
    261       0.00000           0.204732            5.57103
    262       0.00000           0.207094            5.63530
    263       0.00000           0.220465            5.99915
    264       0.00000           0.225788            6.14400
    265       0.00000           0.227225            6.18309
    266       0.00000           0.244826            6.66205
    267       0.00000           0.245883            6.69082
    268       0.00000           0.251838            6.85285
    269       0.00000           0.252491            6.87063
    270       0.00000           0.255248            6.94566
    271       0.00000           0.261323            7.11095
    272       0.00000           0.263433            7.16836
    273       0.00000           0.264082            7.18604
    274       0.00000           0.272640            7.41892
    275       0.00000           0.279031            7.59283
    276       0.00000           0.288028            7.83765
    277       0.00000           0.290417            7.90264
    278       0.00000           0.290580            7.90708
    279       0.00000           0.291817            7.94073
    280       0.00000           0.294123            8.00350
    281       0.00000           0.300041            8.16454
    282       0.00000           0.313668            8.53534
    283       0.00000           0.315048            8.57290
    284       0.00000           0.317653            8.64378
    285       0.00000           0.318729            8.67306
    286       0.00000           0.324388            8.82706
    287       0.00000           0.332506            9.04794
    288       0.00000           0.332773            9.05523
    289       0.00000           0.350367            9.53397
    290       0.00000           0.356057            9.68882
    291       0.00000           0.360235            9.80250
    292       0.00000           0.364691            9.92375
    293       0.00000           0.382897           10.41916
    294       0.00000           0.387289           10.53867
    295       0.00000           0.394956           10.74729
    296       0.00000           0.400279           10.89215
    297       0.00000           0.403471           10.97901
    298       0.00000           0.404177           10.99821
    299       0.00000           0.414694           11.28440
    300       0.00000           0.417651           11.36487
    301       0.00000           0.426451           11.60432
    302       0.00000           0.428208           11.65213
    303       0.00000           0.435226           11.84312
    304       0.00000           0.453548           12.34167
    305       0.00000           0.453924           12.35191
    306       0.00000           0.455707           12.40043
    307       0.00000           0.455776           12.40229
    308       0.00000           0.462713           12.59106
    309       0.00000           0.464856           12.64938
    310       0.00000           0.470426           12.80094
    311       0.00000           0.472990           12.87071
    312       0.00000           0.473434           12.88279
    313       0.00000           0.484686           13.18898
    314       0.00000           0.492823           13.41038
    315       0.00000           0.498379           13.56159
    316       0.00000           0.501098           13.63556
    317       0.00000           0.504308           13.72292
    318       0.00000           0.504714           13.73397
    319       0.00000           0.506979           13.79559
    320       0.00000           0.507697           13.81513

  What follows are estimated values for band gap, HOMO, LUMO, etc.
  | They are estimated on a discrete k-point grid and not necessarily exact.
  | For converged numbers, create a DOS and/or band structure plot on a denser k-grid.

  Highest occupied state (VBM) at     -8.66368243 eV (relative to internal zero)
  | Occupation number:      2.00000000
  | K-point:       1 at    0.000000    0.000000    0.000000 (in units of recip. lattice)

  Lowest unoccupied state (CBM) at    -4.10498319 eV (relative to internal zero)
  | Occupation number:      0.00000000
  | K-point:       1 at    0.000000    0.000000    0.000000 (in units of recip. lattice)

  ESTIMATED overall HOMO-LUMO gap:      4.55869925 eV between HOMO at k-point 1 and LUMO at k-point 1
  | This appears to be a direct band gap.
  The gap value is above 0.2 eV. Unless you are using a very sparse k-point grid,
  this system is most likely an insulator or a semiconductor.

  | Chemical Potential                          :    -8.22993685 eV
  | Note that, for insulating systems, the printed 'chemical potential' value is not uniquely defined.
  | It can be anywhere in the energy gap, as long as it correctly separates occupied and unoccupied states.
  | In systems with a gap, the physically relevant chemical potential is the VBM or HOMO.

  Self-consistency cycle converged.


------------------------------------------------------------
  End self-consistency iteration #    20       :  max(cpu_time)    wall_clock(cpu1)
  | Time for this iteration                     :        5.654 s           5.610 s
  | Charge density & force component update     :        3.510 s           3.510 s
  | Density mixing                              :        0.052 s           0.004 s
  | Hartree multipole update                    :        0.006 s           0.006 s
  | Hartree multipole summation                 :        0.988 s           0.989 s
  | Hartree pot. SCF incomplete forces          :        0.565 s           0.565 s
  | Integration                                 :        0.259 s           0.258 s
  | Solution of K.-S. eqns.                     :        0.266 s           0.265 s
  | Total energy evaluation                     :        0.001 s           0.002 s

  Partial memory accounting:
  | Current value for overall tracked memory usage:
  |   Minimum:       22.154 MB (on task   2)
  |   Maximum:       22.728 MB (on task  60)
  |   Average:       22.247 MB
  | Peak value for overall tracked memory usage:
  |   Minimum:       51.488 MB (on task   2 after allocating temp_ham_ovlp)
  |   Maximum:       52.062 MB (on task  60 after allocating temp_ham_ovlp)
  |   Average:       51.581 MB
  | Largest tracked array allocation so far:
  |   Minimum:       14.668 MB (overlap_matrix on task   0)
  |   Maximum:       14.668 MB (overlap_matrix on task   0)
  |   Average:       14.668 MB
  Note:  These values currently only include a subset of arrays which are explicitly tracked.
  The "true" memory usage will be greater.
------------------------------------------------------------
  Removing unitary transformations (pure translations, rotations) from forces on atoms.
  Atomic forces before filtering:
  | Net force on center of mass :   0.493022E-08 -0.661339E-08 -0.198320E-07 eV/A
  Atomic forces after filtering:
  | Net force on center of mass :   0.696899E-17  0.261337E-18 -0.348449E-17 eV/A

  Energy and forces in a compact form:
  | Total energy uncorrected      :         -0.155062225523299E+06 eV
  | Total energy corrected        :         -0.155062225523299E+06 eV  <-- do not rely on this value for anything but (periodic) metals
  | Electronic free energy        :         -0.155062225523299E+06 eV
  Total atomic forces (unitary forces cleaned) [eV/Ang]:
  |    1          0.209199917179367E-02         -0.971057073398957E-08         -0.146862251394416E-02
  |    2         -0.209199811868219E-02          0.213139674959814E-08          0.146862034254447E-02
  |    3         -0.904424908062704E-02          0.147656895910335E-07         -0.933978080573854E-03
  |    4          0.904424924903879E-02         -0.330669147538498E-08          0.933978783345463E-03
  |    5          0.924633820334005E-02         -0.799631433973800E-07          0.137762240104292E-02
  |    6         -0.924633481446627E-02         -0.654842210948749E-07         -0.137762125065506E-02
  |    7         -0.637195247884407E-02         -0.186666369662935E-07         -0.306476974598747E-02
  |    8          0.637194783320615E-02         -0.478501847821403E-07          0.306476858992550E-02
  |    9         -0.648247475545191E-03          0.689618781850138E-03          0.549265302472684E-04
  |   10          0.648235041439411E-03          0.689600676157213E-03         -0.549176594404265E-04
  |   11          0.648219086832455E-03         -0.689600171008129E-03         -0.548979347289295E-04
  |   12         -0.648205813341352E-03         -0.689584316473697E-03          0.548809786841859E-04
  |   13         -0.262180257956569E-02          0.213044395696538E-02          0.152170420334189E-02
  |   14          0.262181569436548E-02          0.213042283997955E-02         -0.152168203117067E-02
  |   15          0.262183864962531E-02         -0.213045839720898E-02         -0.152166981018549E-02
  |   16         -0.262185160511669E-02         -0.213043689528944E-02          0.152164889525117E-02
  |   17         -0.625027743380109E-02          0.167318630866615E-07         -0.286311907029674E-02
  |   18          0.625027966226100E-02         -0.936721676404777E-08          0.286312102267479E-02
  |   19         -0.290539583956145E-02          0.379198318434574E-07          0.873132147288900E-02
  |   20          0.290539505172602E-02          0.348563896230686E-07         -0.873131833519895E-02
  |   21          0.229130265334267E-02          0.234811813721625E-07          0.362598195622861E-02
  |   22         -0.229130148048298E-02          0.629909962537703E-10         -0.362598149135027E-02
  |   23         -0.214298500520298E-02          0.518058822931722E-07         -0.120991990986173E-02
  |   24          0.214298417932443E-02          0.189949784187818E-07          0.120991859301064E-02
  |   25         -0.444487880280764E-02          0.960446884020689E-03          0.184784159688152E-02
  |   26          0.444485351913401E-02          0.960454052548586E-03         -0.184781832433242E-02
  |   27          0.444490161119334E-02         -0.960495055034909E-03         -0.184779240623731E-02
  |   28         -0.444487766757144E-02         -0.960504820267579E-03          0.184776808006237E-02
  |   29         -0.169218905341891E-02         -0.438418594569549E-02          0.246873071646886E-02
  |   30          0.169219661480387E-02         -0.438420705458175E-02         -0.246874567123049E-02
  |   31          0.169223362693077E-02          0.438424434268207E-02         -0.246869612106897E-02
  |   32         -0.169224204245704E-02          0.438426640805894E-02          0.246871484541740E-02
  |   33         -0.149288639828843E-02         -0.222551406661513E-02         -0.413690474378647E-02
  |   34          0.149285861514408E-02         -0.222556762060335E-02          0.413693322144575E-02
  |   35          0.149285762344515E-02          0.222551339439834E-02          0.413693220028714E-02
  |   36         -0.149283088243981E-02          0.222556743225044E-02         -0.413695896569288E-02
  |   37         -0.583781418702236E-02          0.165373514572827E-03         -0.398174901352074E-02
  |   38          0.583782944725396E-02          0.165354751747739E-03          0.398173297047534E-02
  |   39          0.583781873067666E-02         -0.165367490040110E-03          0.398177383678293E-02
  |   40         -0.583783350563465E-02         -0.165351603952111E-03         -0.398175815774420E-02

  ------------------------------------ 
  Start decomposition of the XC Energy 
  ------------------------------------ 
  X and C from original XC functional choice 
  Hartree-Fock Energy :          0.000000000 Ha              0.000000000 eV
  X Energy            :       -490.989860581 Ha         -13360.513881879 eV
  C Energy            :        -14.809505825 Ha           -402.987157257 eV
  XC Energy w/o HF    :       -505.799366406 Ha         -13763.501039136 eV
  Total XC Energy     :       -505.799366406 Ha         -13763.501039136 eV
  ------------------------------------ 
  LDA X and C from self-consistent density 
  X Energy LDA        :       -451.155737766 Ha         -12276.572249732 eV
  C Energy LDA        :        -29.579597233 Ha           -804.901793652 eV
  ------------------------------------ 
  End decomposition of the XC Energy 
  ------------------------------------ 

------------------------------------------------------------

------------------------------------------------------------------------------
  Final output of selected total energy values:

  The following output summarizes some interesting total energy values
  at the end of a run (AFTER all relaxation, molecular dynamics, etc.).

  | Total energy of the DFT / Hartree-Fock s.c.f. calculation      :        -155062.225523299 eV
  | Final zero-broadening corrected energy (caution - metals only) :        -155062.225523299 eV
  | For reference only, the value of 1 Hartree used in FHI-aims is :             27.211384500 eV
  | For reference only, the overall average (free atom contribution
  | + realspace contribution) of the electrostatic potential after
  | s.c.f. convergence is                                          :            -16.211020250 eV

  Before relying on these values, please be sure to understand exactly which
  total energy value is referred to by a given number. Different objects may
  all carry the same name 'total energy'. Definitions:

  Total energy of the DFT / Hartree-Fock s.c.f. calculation:
  | Note that this energy does not include ANY quantities calculated after the
  | s.c.f. cycle, in particular not ANY RPA, MP2, etc. many-body perturbation terms.

  Final zero-broadening corrected energy:
  | For metallic systems only, a broadening of the occupation numbers at the Fermi
  | level can be extrapolated back to zero broadening by an electron-gas inspired
  | formula. For all systems that are not real metals, this value can be
  | meaningless and should be avoided.

------------------------------------------------------------------------------
  Methods described in the following list of references were used in this FHI-aims run.
  If you publish the results, please make sure to cite these reference if they apply.
  FHI-aims is an academic code, and for our developers (often, Ph.D. students
  and postdocs), scientific credit in the community is essential.
  Thank you for helping us!

  For any use of FHI-aims, please cite:

    Volker Blum, Ralf Gehrke, Felix Hanke, Paula Havu, Ville Havu,
    Xinguo Ren, Karsten Reuter, and Matthias Scheffler
    'Ab initio molecular simulations with numeric atom-centered orbitals'
    Computer Physics Communications 180, 2175-2196 (2009)
    http://doi.org/10.1016/j.cpc.2009.06.022


  The provided symmetry information was generated with SPGlib:

    Atsushi Togo, Yusuke Seto, Dimitar Pashov
    SPGlib 1.7.3 obtained from http://spglib.sourceforge.net
    Copyright (C) 2008 Atsushi Togo


  The ELSI infrastructure was used in your run to solve the Kohn-Sham electronic structure.
  Please check out http://elsi-interchange.org to learn more.
  If scalability is important for your project, please acknowledge ELSI by citing:

    V. W-z. Yu, F. Corsetti, A. Garcia, W. P. Huhn, M. Jacquelin, W. Jia,
    B. Lange, L. Lin, J. Lu, W. Mi, A. Seifitokaldani, A. Vazquez-Mayagoitia,
    C. Yang, H. Yang, and V. Blum
    'ELSI: A unified software interface for Kohn-Sham electronic structure solvers'
    Computer Physics Communications 222, 267-285 (2018).
    http://doi.org/10.1016/j.cpc.2017.09.007


  For the real-space grid partitioning and parallelization used in this calculation, please cite:

    Ville Havu, Volker Blum, Paula Havu, and Matthias Scheffler,
    'Efficient O(N) integration for all-electron electronic structure calculation'
    'using numerically tabulated basis functions'
    Journal of Computational Physics 228, 8367-8379 (2009).
    http://doi.org/10.1016/j.jcp.2009.08.008

  Of course, there are many other important community references, e.g., those cited in the
  above references. Our list is limited to references that describe implementations in the
  FHI-aims code. The reason is purely practical (length of this list) - please credit others as well.

------------------------------------------------------------
          Leaving FHI-aims.
          Date     :  20230128, Time     :  224839.696

          Computational steps:
          | Number of self-consistency cycles          :           20
          | Number of SCF (re)initializations          :            1

          Detailed time accounting                     :  max(cpu_time)    wall_clock(cpu1)
          | Total time                                  :       50.145 s          50.390 s
          | Preparation time                            :        0.489 s           0.489 s
          | Boundary condition initalization            :        4.887 s           4.888 s
          | Grid partitioning                           :        0.628 s           0.627 s
          | Preloading free-atom quantities on grid     :        0.287 s           0.287 s
          | Free-atom superposition energy              :        0.068 s           0.068 s
          | Total time for integrations                 :        5.879 s           5.881 s
          | Total time for solution of K.-S. equations  :        5.769 s           5.760 s
          | Total time for density & force components   :       14.351 s          14.353 s
          | Total time for mixing & preconditioning     :        7.239 s           6.347 s
          | Total time for Hartree multipole update     :        0.126 s           0.124 s
          | Total time for Hartree multipole sum        :        8.816 s           8.816 s
          | Total time for total energy evaluation      :        0.029 s           0.023 s
          | Total time NSC force correction             :        1.131 s           1.132 s
          | Total time for scaled ZORA corrections      :        0.000 s           0.000 s

          Partial memory accounting:
          | Residual value for overall tracked memory usage across tasks:     0.000000 MB (should be 0.000000 MB)
          | Peak values for overall tracked memory usage:
          |   Minimum:       51.488 MB (on task   2 after allocating temp_ham_ovlp)
          |   Maximum:       52.062 MB (on task  60 after allocating temp_ham_ovlp)
          |   Average:       51.581 MB
          | Largest tracked array allocation:
          |   Minimum:       14.668 MB (overlap_matrix on task   0)
          |   Maximum:       14.668 MB (overlap_matrix on task   0)
          |   Average:       14.668 MB
          Note:  These values currently only include a subset of arrays which are explicitly tracked.
          The "true" memory usage will be greater.

          Have a nice day.
------------------------------------------------------------
