------------------------------------------------------------
          Invoking FHI-aims ...

          When using FHI-aims, please cite the following reference:

            Volker Blum, Ralf Gehrke, Felix Hanke, Paula Havu,
            Ville Havu, Xinguo Ren, Karsten Reuter, and Matthias Scheffler,
            'Ab Initio Molecular Simulations with Numeric Atom-Centered Orbitals',
            Computer Physics Communications 180, 2175-2196 (2009)

          In addition, many other developments in FHI-aims are likely important for
          your particular application. If so, please cite them. A partial list of references
          is written at the end of this file. Thank you for giving credit to the authors
          of these developments.

          For general information about FHI-aims please find us at

            https://fhi-aims.org

          Online tutorials can be found at

            https://fhi-aims-club.gitlab.io/tutorials/tutorials-overview/

          For any questions about FHI-aims, please visit our slack channel at

            https://fhi-aims.slack.com

          and our main development and support site at

            https://aims-git.rz-berlin.mpg.de .

          The latter site, in particular, has a wiki to collect information, as well
          as an issue tracker to log discussions, suggest improvements, and report issues
          or bugs. https://aims-git.rz-berlin.mpg.de is also the main development site
          of the project and all new and updated code versions can be obtained there.
          Please send an email to aims-coordinators@fhi-berlin.mpg.de and we will add
          you to these sites. They are for you and everyone is welcome there.

------------------------------------------------------------



  Date     :  20250609, Time     :  094619.793
  Time zero on CPU 1             :   0.222569000000000E+00  s.
  Internal wall clock time zero  :           518694379.793  s.

  FHI-aims created a unique identifier for this run for later identification
  aims_uuid : ADBFADD9-8FE3-40BD-A719-DCC2B5866623

  Build configuration of the current instance of FHI-aims
  -------------------------------------------------------
  FHI-aims version      : 230905
  Commit number         : 6362ac204
  CMake host system     : Linux-3.10.0-1160.119.1.el7.x86_64
  CMake version         : 3.14.3
  Fortran compiler      : /apps/compilers/intel/2018.2/compilers_and_libraries_2018/linux/mpi/intel64/bin/mpif90 (Intel) version 18.0.2.20180210
  Fortran compiler flags: -O3 -ip -fp-model precise
  C compiler            : /apps/compilers/intel/2018.2/compilers_and_libraries_2018/linux/bin/intel64/icc (Intel) version 18.0.2.20180210
  C compiler flags      : -O3 -ip -fp-model precise
  C++ compiler          : /apps/compilers/intel/2018.2/compilers_and_libraries_2018/linux/bin/intel64/icpc (Intel) version 18.0.2.20180210
  C++ compiler flags    : -O3 -ip -fp-model precise
  HIP compiler          :
  HIP compiler flags    :
  HIP GPU arch          :
  ELPA2 kernel          : AVX2
  Using MPI
  Using ScaLAPACK
  Using LibXC
  Using i-PI
  Using RLSY
  Linking against: /apps/compilers/intel/2018.2/compilers_and_libraries_2018/linux/mkl/lib/intel64/libmkl_intel_lp64.so
                   /apps/compilers/intel/2018.2/compilers_and_libraries_2018/linux/mkl/lib/intel64/libmkl_intel_thread.so
                   /apps/compilers/intel/2018.2/compilers_and_libraries_2018/linux/mkl/lib/intel64/libmkl_core.so
                   /apps/compilers/intel/2018.2/compilers_and_libraries_2018/linux/mkl/lib/intel64/libmkl_blacs_intelmpi_lp64.so
                   /apps/compilers/intel/2018.2/compilers_and_libraries_2018/linux/mkl/lib/intel64/libmkl_scalapack_lp64.so
                   /usr/lib64/libpthread.so

  Using      240 parallel tasks.
  Task        0 on host ccs0101 reporting.
  Task        1 on host ccs0101 reporting.
  Task        2 on host ccs0101 reporting.
  Task        3 on host ccs0101 reporting.
  Task        4 on host ccs0101 reporting.
  Task        5 on host ccs0101 reporting.
  Task        6 on host ccs0101 reporting.
  Task        7 on host ccs0101 reporting.
  Task        8 on host ccs0101 reporting.
  Task        9 on host ccs0101 reporting.
  Task       10 on host ccs0101 reporting.
  Task       11 on host ccs0101 reporting.
  Task       12 on host ccs0101 reporting.
  Task       13 on host ccs0101 reporting.
  Task       14 on host ccs0101 reporting.
  Task       15 on host ccs0101 reporting.
  Task       16 on host ccs0101 reporting.
  Task       17 on host ccs0101 reporting.
  Task       18 on host ccs0101 reporting.
  Task       19 on host ccs0101 reporting.
  Task       20 on host ccs0101 reporting.
  Task       21 on host ccs0101 reporting.
  Task       22 on host ccs0101 reporting.
  Task       23 on host ccs0101 reporting.
  Task       24 on host ccs0101 reporting.
  Task       25 on host ccs0101 reporting.
  Task       26 on host ccs0101 reporting.
  Task       27 on host ccs0101 reporting.
  Task       28 on host ccs0101 reporting.
  Task       29 on host ccs0101 reporting.
  Task       30 on host ccs0101 reporting.
  Task       31 on host ccs0101 reporting.
  Task       32 on host ccs0101 reporting.
  Task       33 on host ccs0101 reporting.
  Task       34 on host ccs0101 reporting.
  Task       35 on host ccs0101 reporting.
  Task       36 on host ccs0101 reporting.
  Task       37 on host ccs0101 reporting.
  Task       38 on host ccs0101 reporting.
  Task       39 on host ccs0101 reporting.
  Task       40 on host ccs0102 reporting.
  Task       41 on host ccs0102 reporting.
  Task       42 on host ccs0102 reporting.
  Task       43 on host ccs0102 reporting.
  Task       44 on host ccs0102 reporting.
  Task       45 on host ccs0102 reporting.
  Task       46 on host ccs0102 reporting.
  Task       47 on host ccs0102 reporting.
  Task       48 on host ccs0102 reporting.
  Task       49 on host ccs0102 reporting.
  Task       50 on host ccs0102 reporting.
  Task       51 on host ccs0102 reporting.
  Task       52 on host ccs0102 reporting.
  Task       53 on host ccs0102 reporting.
  Task       54 on host ccs0102 reporting.
  Task       55 on host ccs0102 reporting.
  Task       56 on host ccs0102 reporting.
  Task       57 on host ccs0102 reporting.
  Task       58 on host ccs0102 reporting.
  Task       59 on host ccs0102 reporting.
  Task       60 on host ccs0102 reporting.
  Task       61 on host ccs0102 reporting.
  Task       62 on host ccs0102 reporting.
  Task       63 on host ccs0102 reporting.
  Task       64 on host ccs0102 reporting.
  Task       65 on host ccs0102 reporting.
  Task       66 on host ccs0102 reporting.
  Task       67 on host ccs0102 reporting.
  Task       68 on host ccs0102 reporting.
  Task       69 on host ccs0102 reporting.
  Task       70 on host ccs0102 reporting.
  Task       71 on host ccs0102 reporting.
  Task       72 on host ccs0102 reporting.
  Task       73 on host ccs0102 reporting.
  Task       74 on host ccs0102 reporting.
  Task       75 on host ccs0102 reporting.
  Task       76 on host ccs0102 reporting.
  Task       77 on host ccs0102 reporting.
  Task       78 on host ccs0102 reporting.
  Task       79 on host ccs0102 reporting.
  Task       80 on host ccs0105 reporting.
  Task       81 on host ccs0105 reporting.
  Task       82 on host ccs0105 reporting.
  Task       83 on host ccs0105 reporting.
  Task       84 on host ccs0105 reporting.
  Task       85 on host ccs0105 reporting.
  Task       86 on host ccs0105 reporting.
  Task       87 on host ccs0105 reporting.
  Task       88 on host ccs0105 reporting.
  Task       89 on host ccs0105 reporting.
  Task       90 on host ccs0105 reporting.
  Task       91 on host ccs0105 reporting.
  Task       92 on host ccs0105 reporting.
  Task       93 on host ccs0105 reporting.
  Task       94 on host ccs0105 reporting.
  Task       95 on host ccs0105 reporting.
  Task       96 on host ccs0105 reporting.
  Task       97 on host ccs0105 reporting.
  Task       98 on host ccs0105 reporting.
  Task       99 on host ccs0105 reporting.
  Task      100 on host ccs0105 reporting.
  Task      101 on host ccs0105 reporting.
  Task      102 on host ccs0105 reporting.
  Task      103 on host ccs0105 reporting.
  Task      104 on host ccs0105 reporting.
  Task      105 on host ccs0105 reporting.
  Task      106 on host ccs0105 reporting.
  Task      107 on host ccs0105 reporting.
  Task      108 on host ccs0105 reporting.
  Task      109 on host ccs0105 reporting.
  Task      110 on host ccs0105 reporting.
  Task      111 on host ccs0105 reporting.
  Task      112 on host ccs0105 reporting.
  Task      113 on host ccs0105 reporting.
  Task      114 on host ccs0105 reporting.
  Task      115 on host ccs0105 reporting.
  Task      116 on host ccs0105 reporting.
  Task      117 on host ccs0105 reporting.
  Task      118 on host ccs0105 reporting.
  Task      119 on host ccs0105 reporting.
  Task      120 on host ccs0106 reporting.
  Task      121 on host ccs0106 reporting.
  Task      122 on host ccs0106 reporting.
  Task      123 on host ccs0106 reporting.
  Task      124 on host ccs0106 reporting.
  Task      125 on host ccs0106 reporting.
  Task      126 on host ccs0106 reporting.
  Task      127 on host ccs0106 reporting.
  Task      128 on host ccs0106 reporting.
  Task      129 on host ccs0106 reporting.
  Task      130 on host ccs0106 reporting.
  Task      131 on host ccs0106 reporting.
  Task      132 on host ccs0106 reporting.
  Task      133 on host ccs0106 reporting.
  Task      134 on host ccs0106 reporting.
  Task      135 on host ccs0106 reporting.
  Task      136 on host ccs0106 reporting.
  Task      137 on host ccs0106 reporting.
  Task      138 on host ccs0106 reporting.
  Task      139 on host ccs0106 reporting.
  Task      140 on host ccs0106 reporting.
  Task      141 on host ccs0106 reporting.
  Task      142 on host ccs0106 reporting.
  Task      143 on host ccs0106 reporting.
  Task      144 on host ccs0106 reporting.
  Task      145 on host ccs0106 reporting.
  Task      146 on host ccs0106 reporting.
  Task      147 on host ccs0106 reporting.
  Task      148 on host ccs0106 reporting.
  Task      149 on host ccs0106 reporting.
  Task      150 on host ccs0106 reporting.
  Task      151 on host ccs0106 reporting.
  Task      152 on host ccs0106 reporting.
  Task      153 on host ccs0106 reporting.
  Task      154 on host ccs0106 reporting.
  Task      155 on host ccs0106 reporting.
  Task      156 on host ccs0106 reporting.
  Task      157 on host ccs0106 reporting.
  Task      158 on host ccs0106 reporting.
  Task      159 on host ccs0106 reporting.
  Task      160 on host ccs0113 reporting.
  Task      161 on host ccs0113 reporting.
  Task      162 on host ccs0113 reporting.
  Task      163 on host ccs0113 reporting.
  Task      164 on host ccs0113 reporting.
  Task      165 on host ccs0113 reporting.
  Task      166 on host ccs0113 reporting.
  Task      167 on host ccs0113 reporting.
  Task      168 on host ccs0113 reporting.
  Task      169 on host ccs0113 reporting.
  Task      170 on host ccs0113 reporting.
  Task      171 on host ccs0113 reporting.
  Task      172 on host ccs0113 reporting.
  Task      173 on host ccs0113 reporting.
  Task      174 on host ccs0113 reporting.
  Task      175 on host ccs0113 reporting.
  Task      176 on host ccs0113 reporting.
  Task      177 on host ccs0113 reporting.
  Task      178 on host ccs0113 reporting.
  Task      179 on host ccs0113 reporting.
  Task      180 on host ccs0113 reporting.
  Task      181 on host ccs0113 reporting.
  Task      182 on host ccs0113 reporting.
  Task      183 on host ccs0113 reporting.
  Task      184 on host ccs0113 reporting.
  Task      185 on host ccs0113 reporting.
  Task      186 on host ccs0113 reporting.
  Task      187 on host ccs0113 reporting.
  Task      188 on host ccs0113 reporting.
  Task      189 on host ccs0113 reporting.
  Task      190 on host ccs0113 reporting.
  Task      191 on host ccs0113 reporting.
  Task      192 on host ccs0113 reporting.
  Task      193 on host ccs0113 reporting.
  Task      194 on host ccs0113 reporting.
  Task      195 on host ccs0113 reporting.
  Task      196 on host ccs0113 reporting.
  Task      197 on host ccs0113 reporting.
  Task      198 on host ccs0113 reporting.
  Task      199 on host ccs0113 reporting.
  Task      200 on host ccs0114 reporting.
  Task      201 on host ccs0114 reporting.
  Task      202 on host ccs0114 reporting.
  Task      203 on host ccs0114 reporting.
  Task      204 on host ccs0114 reporting.
  Task      205 on host ccs0114 reporting.
  Task      206 on host ccs0114 reporting.
  Task      207 on host ccs0114 reporting.
  Task      208 on host ccs0114 reporting.
  Task      209 on host ccs0114 reporting.
  Task      210 on host ccs0114 reporting.
  Task      211 on host ccs0114 reporting.
  Task      212 on host ccs0114 reporting.
  Task      213 on host ccs0114 reporting.
  Task      214 on host ccs0114 reporting.
  Task      215 on host ccs0114 reporting.
  Task      216 on host ccs0114 reporting.
  Task      217 on host ccs0114 reporting.
  Task      218 on host ccs0114 reporting.
  Task      219 on host ccs0114 reporting.
  Task      220 on host ccs0114 reporting.
  Task      221 on host ccs0114 reporting.
  Task      222 on host ccs0114 reporting.
  Task      223 on host ccs0114 reporting.
  Task      224 on host ccs0114 reporting.
  Task      225 on host ccs0114 reporting.
  Task      226 on host ccs0114 reporting.
  Task      227 on host ccs0114 reporting.
  Task      228 on host ccs0114 reporting.
  Task      229 on host ccs0114 reporting.
  Task      230 on host ccs0114 reporting.
  Task      231 on host ccs0114 reporting.
  Task      232 on host ccs0114 reporting.
  Task      233 on host ccs0114 reporting.
  Task      234 on host ccs0114 reporting.
  Task      235 on host ccs0114 reporting.
  Task      236 on host ccs0114 reporting.
  Task      237 on host ccs0114 reporting.
  Task      238 on host ccs0114 reporting.
  Task      239 on host ccs0114 reporting.

  Memory overcommitment is allowed on your operating system.

  Obtaining array dimensions for all initial allocations:
  
  -----------------------------------------------------------------------
  Parsing control.in (first pass over file, find array dimensions only).
  The contents of control.in will be repeated verbatim below
  unless switched off by setting 'verbatim_writeout .false.' .
  in the first line of control.in .
  -----------------------------------------------------------------------
  
  #===============================================================================
  # FHI-aims file: ./control.in
  # Created using the Atomic Simulation Environment (ASE)
  # Mon Jun  9 09:46:18 2025
  #===============================================================================
  compute_forces                     .true.
  xc                                 mbeef
  k_grid                             3 3 2
  relativistic                       atomic_zora scalar
  occupation_type                    gaussian 0.1
  plus_u_petukhov_mixing             1
  plus_u_use_hydros                  True
  plus_u_matrix_control              True
  plus_u_matrix_release              0.001
  sc_accuracy_etot                   1e-06
  sc_accuracy_eev                    0.001
  sc_accuracy_rho                    1e-06
  sc_accuracy_forces                 0.0001
  #===============================================================================
  
  ################################################################################
  #
  #  FHI-aims code project
  #  VB, Fritz-Haber Institut, 2009
  #
  #  Suggested "light" defaults for Ti atom (to be pasted into control.in file)
  #  Be sure to double-check any results obtained with these settings for post-processing,
  #  e.g., with the "tight" defaults and larger basis sets.
  #
  ################################################################################
    species        Ti
  #     global species definitions
      nucleus             22
      mass                47.867
  #
      l_hartree           4
  #
      cut_pot             3.5          1.5  1.0
      basis_dep_cutoff    1e-4
  #
      radial_base         48 5.0
      radial_multiplier   1
      angular_grids       specified
        division   0.5171   50
        division   0.9824  110
        division   1.2917  194
        division   1.4940  302
  #      division   1.6934  434
  #      division   1.8425  590
  #      division   2.1901  770
  #      division   2.2896  974
  #      division   2.8244 1202
  #      outer_grid  974
        outer_grid  302
  ################################################################################
  #
  #  Definition of "minimal" basis
  #
  ################################################################################
  #     valence basis states
      valence      4  s   2.
      valence      3  p   6.
      valence      3  d   2.
  #     ion occupancy
      ion_occ      4  s   1.
      ion_occ      3  p   6.
      ion_occ      3  d   1.
  ################################################################################
  #
  #  Suggested additional basis functions. For production calculations,
  #  uncomment them one after another (the most important basis functions are
  #  listed first).
  #
  #  Constructed for dimers: 1.6 A, 1.85 A, 2.5 A, 3.25 A, 4.25 A
  #
  ################################################################################
  #  "First tier" - improvements: -396.25 meV to -19.41 meV
       hydro 4 f 8
       hydro 3 d 2.7
       ionic 4 p auto
  #     hydro 5 g 11.6
       ionic 4 s auto
  #  "Second tier" - improvements: -16.30 meV to -2.03 meV
  #     hydro 3 d 4.4
  #     hydro 6 h 16
  #     hydro 4 f 9.4
  #     hydro 4 p 4.5
  #     hydro 1 s 0.5
  #  "Third tier" - improvements: -6.28 meV to -0.37 meV
  #     hydro 4 d 6.4
  #     hydro 4 f 10
  #     hydro 5 g 12
  #     hydro 2 p 1.7
  #     hydro 6 h 16.4
  #     hydro 4 s 3.8
  #  Further basis functions: -0.45 meV and smaller improvements
  #     hydro 3 d 8.8
  #     hydro 5 p 18
  #     hydro 4 f 22.4
  #     hydro 5 f 7.2  # -0.16 meV
  #     hydro 3 d 2.1  # -0.11 meV
  #     hydro 5 g 7.4  # -0.09 meV
  plus_u 3 d 2.575
  hubbard_coefficient 0.752 -0.486 0 0
  ################################################################################
  #
  #  FHI-aims code project
  #  VB, Fritz-Haber Institut, 2009
  #
  #  Suggested "light" defaults for O atom (to be pasted into control.in file)
  #  Be sure to double-check any results obtained with these settings for post-processing,
  #  e.g., with the "tight" defaults and larger basis sets.
  #
  ################################################################################
    species        O
  #     global species definitions
      nucleus             8
      mass                15.9994
  #
      l_hartree           4
  #
      cut_pot             3.5  1.5  1.0
      basis_dep_cutoff    1e-4
  #
      radial_base         36 5.0
      radial_multiplier   1
       angular_grids specified
        division   0.2659   50
        division   0.4451  110
        division   0.6052  194
        division   0.7543  302
  #      division   0.8014  434
  #      division   0.8507  590
  #      division   0.8762  770
  #      division   0.9023  974
  #      division   1.2339 1202
  #      outer_grid 974
        outer_grid 302
  ################################################################################
  #
  #  Definition of "minimal" basis
  #
  ################################################################################
  #     valence basis states
      valence      2  s   2.
      valence      2  p   4.
  #     ion occupancy
      ion_occ      2  s   1.
      ion_occ      2  p   3.
  ################################################################################
  #
  #  Suggested additional basis functions. For production calculations,
  #  uncomment them one after another (the most important basis functions are
  #  listed first).
  #
  #  Constructed for dimers: 1.0 A, 1.208 A, 1.5 A, 2.0 A, 3.0 A
  #
  ################################################################################
  #  "First tier" - improvements: -699.05 meV to -159.38 meV
       hydro 2 p 1.8
       hydro 3 d 7.6
       hydro 3 s 6.4
  #  "Second tier" - improvements: -49.91 meV to -5.39 meV
  #     hydro 4 f 11.6
  #     hydro 3 p 6.2
  #     hydro 3 d 5.6
  #     hydro 5 g 17.6
  #     hydro 1 s 0.75
  #  "Third tier" - improvements: -2.83 meV to -0.50 meV
  #     ionic 2 p auto
  #     hydro 4 f 10.8
  #     hydro 4 d 4.7
  #     hydro 2 s 6.8
  #  "Fourth tier" - improvements: -0.40 meV to -0.12 meV
  #     hydro 3 p 5
  #     hydro 3 s 3.3
  #     hydro 5 g 15.6
  #     hydro 4 f 17.6
  #     hydro 4 d 14
  # Further basis functions - -0.08 meV and below
  #     hydro 3 s 2.1
  #     hydro 4 d 11.6
  #     hydro 3 p 16
  #     hydro 2 s 17.2
  
  -----------------------------------------------------------------------
  Completed first pass over input file control.in .
  -----------------------------------------------------------------------
  
  
  -----------------------------------------------------------------------
  Parsing geometry.in (first pass over file, find array dimensions only).
  The contents of geometry.in will be repeated verbatim below
  unless switched off by setting 'verbatim_writeout .false.' .
  in the first line of geometry.in .
  -----------------------------------------------------------------------
  
  #=======================================================
  # FHI-aims file: ./geometry.in
  # Created using the Atomic Simulation Environment (ASE)
  # Mon Jun  9 09:46:18 2025
  #=======================================================
  lattice_vector 9.1913999999999998 0.0000000000000000 0.0000000000000000
  lattice_vector 0.0000000000000000 9.1913999999999998 0.0000000000000000
  lattice_vector 0.0000000000000000 0.0000000000000000 14.7944999999999993
  atom_frac 0.2431967069227058 0.2431973462567524 0.0999830519969484 Ti
  atom_frac 0.0009177907999958 0.0009165513393032 -0.0007870223677374 Ti
  atom_frac 0.0965285763149393 0.4016208902143522 0.1000032816521042 O
  atom_frac 0.4016172050055605 0.0965253476648312 0.1000031169342735 O
  atom_frac 0.1533394028592590 0.1533428191675661 -0.0009180181893670 O
  atom_frac 0.3480208339092101 0.3480174399597741 0.0004098424527429 O
  atom_frac 0.2577131683119636 0.2577137182312110 0.2979149182204242 Ti
  atom_frac 0.0009026079905694 0.0009010495401287 0.2008626815902368 Ti
  atom_frac 0.0976240930453102 0.4029685338325872 0.3006082061215676 O
  atom_frac 0.4029652451260890 0.0976210838760199 0.3006084741685375 O
  atom_frac 0.1533616177335376 0.1533651139777456 0.2009358514150709 O
  atom_frac 0.3480546951240179 0.3480512650440407 0.1995636923844154 O
  atom_frac 0.2460721450672607 0.2460736957537986 0.4947260757859274 Ti
  atom_frac 0.0065222040304518 0.0065287473208409 0.3966951386253925 Ti
  atom_frac 0.0954271965642608 0.4017953483170663 0.5000774618471872 O
  atom_frac 0.4017926279535495 0.0954225550269635 0.5000767717625099 O
  atom_frac 0.1532600209746250 0.1532637664536120 0.3990139545352027 O
  atom_frac 0.3478778539175393 0.3478756386917073 0.4023906897438286 O
  atom_frac 0.2459775607247259 0.2459791828438576 0.7052284568024838 Ti
  atom_frac 0.0054912182794137 0.0054844285055388 0.6000037101537929 Ti
  atom_frac 0.0953210082067230 0.4017208063222339 0.6999348076371084 O
  atom_frac 0.4017177034094789 0.0953157913372494 0.6999353936316701 O
  atom_frac 0.1494549285116700 0.1494581735648851 0.6000200444140772 O
  atom_frac 0.3408093299453803 0.3407987160945734 0.6000152938424430 O
  atom_frac 0.2577366338658544 0.2577371970657207 0.9020151240627814 Ti
  atom_frac 0.0064695279784865 0.0064755282986170 0.8034349950048851 Ti
  atom_frac 0.0974971487449333 0.4028549622343687 0.8993968732303474 O
  atom_frac 0.4028513551403428 0.0974939536991217 0.8993965223230338 O
  atom_frac 0.1532079247871451 0.1532115699558228 0.8009773221092958 O
  atom_frac 0.3478078199295003 0.3478054266705263 0.7976241709659957 O
  atom_frac 0.2489261766344393 0.7540417049679052 0.0999733146557676 Ti
  atom_frac -0.0006428279554191 0.4991309886888951 0.0001888875551448 Ti
  atom_frac 0.0977888023020169 0.9032839688403932 0.1000028620607555 O
  atom_frac 0.4026280119621268 0.5960838625481023 0.1000014615484799 O
  atom_frac 0.1529397240101635 0.6520232281792459 -0.0003305692466298 O
  atom_frac 0.3470692432009353 0.8460759546979582 -0.0001453717503777 O
  atom_frac 0.2512685924387560 0.7443537060502941 0.3000118259849002 Ti
  atom_frac -0.0002478231839904 0.4995984111286251 0.1997873386261144 Ti
  atom_frac 0.0984099604236197 0.9042663627152908 0.2999311515042239 O
  atom_frac 0.4040404496232373 0.5975275519887536 0.3016292132373464 O
  atom_frac 0.1530132560483203 0.6520943373192656 0.2003796731831634 O
  atom_frac 0.3471209122797106 0.8461477224488230 0.2001587306876818 O
  atom_frac 0.2480837265401442 0.7527674476024754 0.5001428598334778 Ti
  atom_frac -0.0014970884336198 0.4982748276406889 0.3996016769140628 Ti
  atom_frac 0.0934736535050179 0.9002221849494886 0.5000672490714043 O
  atom_frac 0.4095471984021630 0.6008096755148523 0.5036760120979266 O
  atom_frac 0.1525489145811362 0.6515396069582103 0.4008636358575066 O
  atom_frac 0.3460294551341910 0.8468493193584278 0.4005269621004877 O
  atom_frac 0.2469848924786097 0.7518988560971256 0.6997751709308722 Ti
  atom_frac -0.0011827977583630 0.5008396681191916 0.6000032319474956 Ti
  atom_frac 0.0933384008109505 0.9000815024423537 0.6999551692960154 O
  atom_frac 0.4094152348686865 0.6007017074147536 0.6963684901122419 O
  atom_frac 0.1528354492814842 0.6504448222771362 0.5999927989661202 O
  atom_frac 0.3440570825194902 0.8488018343824536 0.6000527080839231 O
  atom_frac 0.2506735925280907 0.7436442592418412 0.8999280268168687 Ti
  atom_frac -0.0027434781097812 0.4970937505444240 0.8003921722008209 Ti
  atom_frac 0.0983663327253423 0.9042156875696051 0.9000837908442572 O
  atom_frac 0.4039689705487443 0.5974495837944043 0.8983872684189270 O
  atom_frac 0.1524139976531662 0.6514299089268630 0.7991894348747574 O
  atom_frac 0.3459146381041226 0.8466784196462872 0.7994857782834464 O
  atom_frac 0.7540445165421066 0.2489244159493506 0.0999731973254930 Ti
  atom_frac 0.4991306777828246 -0.0006436634205298 0.0001896377413772 Ti
  atom_frac 0.5960872432261410 0.4026325063462575 0.1000013388260093 O
  atom_frac 0.9032805655964461 0.0977853192411148 0.1000028400418310 O
  atom_frac 0.6520196753893962 0.1529436551899171 -0.0003307323265312 O
  atom_frac 0.8460788487537988 0.3470663053793911 -0.0001453974652593 O
  atom_frac 0.7443487214185558 0.2512728857323584 0.3000111564716523 Ti
  atom_frac 0.4995984189880610 -0.0002492511154313 0.1997865847163768 Ti
  atom_frac 0.5975303034132202 0.4040440018651631 0.3016292754569461 O
  atom_frac 0.9042628605126760 0.0984069899217763 0.2999304522803455 O
  atom_frac 0.6520904630288169 0.1530173541151673 0.2003798112076015 O
  atom_frac 0.8461505627891811 0.3471179850253788 0.2001587707404416 O
  atom_frac 0.7527692133371429 0.2480824064833958 0.5001444092195091 Ti
  atom_frac 0.4982751364729506 -0.0014917566862943 0.3996019199627858 Ti
  atom_frac 0.6008160867292660 0.4095486797550725 0.5036736580677175 O
  atom_frac 0.9002199643597140 0.0934694527239459 0.5000675442868070 O
  atom_frac 0.6515373270122882 0.1525506535149473 0.4008635592647153 O
  atom_frac 0.8468539199925565 0.3460257587781656 0.4005272901314931 O
  atom_frac 0.7519005480442343 0.2469834351652404 0.6997735961176201 Ti
  atom_frac 0.5008368481307088 -0.0011892344778355 0.6000033022725467 Ti
  atom_frac 0.6007080959601306 0.4094163393437453 0.6963707803048912 O
  atom_frac 0.9000794234817384 0.0933343063529425 0.6999549246249630 O
  atom_frac 0.6504417722875990 0.1528381676775624 0.5999929808078334 O
  atom_frac 0.8488048576192309 0.3440541429092411 0.6000528212693959 O
  atom_frac 0.7436392992547326 0.2506778196427771 0.8999284071837875 Ti
  atom_frac 0.4970938776004133 -0.0027386311818146 0.8003919091321046 Ti
  atom_frac 0.5974520954553559 0.4039724559924108 0.8983873162911774 O
  atom_frac 0.9042122652048171 0.0983636357259090 0.9000840727461390 O
  atom_frac 0.6514271975952843 0.1524160990283351 0.7991896074942904 O
  atom_frac 0.8466826686053133 0.3459114059581234 0.7994856578223177 O
  atom_frac 0.7535008519519694 0.7534979514376602 0.0999819673324395 Ti
  atom_frac 0.4979416846310366 0.4979410217689009 0.0014877050564375 Ti
  atom_frac 0.5974023567191361 0.9033320575350288 0.1000003746797896 O
  atom_frac 0.9033280138727644 0.5973991504330797 0.1000004007080916 O
  atom_frac 0.6511519773117737 0.6511561651066393 0.0016201412031278 O
  atom_frac 0.8479137985023598 0.8479100788164277 -0.0000348288981125 O
  atom_frac 0.7450115514705731 0.7450146133398082 0.2925884971908204 Ti
  atom_frac 0.4979745196844071 0.4979740103513064 0.1985568810758099 Ti
  atom_frac 0.5963890549902969 0.9015538537760965 0.2997873915005387 O
  atom_frac 0.9015512492738114 0.5963861057039613 0.2997879778387443 O
  atom_frac 0.6511833519205029 0.6511872983781470 0.1983541279908209 O
  atom_frac 0.8479534341072491 0.8479500226044452 0.1999748033350873 O
  atom_frac 0.7685275725462635 0.7685281650347223 0.4869131065374685 Ti
  atom_frac 0.5080840950213510 0.5080915271270641 0.4025422629349817 Ti
  atom_frac 0.5976672469361394 0.8966982267379597 0.5008019197131559 O
  atom_frac 0.8966983068531931 0.5976663520524917 0.5008021862654097 O
  atom_frac 0.6562718835419303 0.6562750740408994 0.4011454083790435 O
  atom_frac 0.8520301967212164 0.8520272993398986 0.3937620802575678 O
  atom_frac 0.7685533477133009 0.7685536737439659 0.7130356387106083 Ti
  atom_frac 0.4769316963370654 0.4769176482281614 0.6000478888243613 Ti
  atom_frac 0.5976979553969739 0.8967076993844236 0.6991622110895035 O
  atom_frac 0.8967082244183863 0.5976972514859964 0.6991617589666796 O
  atom_frac 0.8351767827886539 0.8351745359291844 0.5999627296839984 O
  atom_frac 0.7449752059100845 0.7449785251769966 0.9073889397269863 Ti
  atom_frac 0.5080867924656420 0.5080940791742716 0.7974572756076808 Ti
  atom_frac 0.5962304674060067 0.9013925027314572 0.9002048249709277 O
  atom_frac 0.9013892613552560 0.5962268216207353 0.9002043607494491 O
  atom_frac 0.6562503522383533 0.6562532518100478 0.7987577297931113 O
  atom_frac 0.8519898003291658 0.8519868431211931 0.8062317092047343 O
  
  -----------------------------------------------------------------------
  Completed first pass over input file geometry.in .
  -----------------------------------------------------------------------
  

  Basic array size parameters:
  | Number of species                 :        2
  | Number of atoms                   :      119
  | Number of lattice vectors         :        3
  | Max. basis fn. angular momentum   :        3
  | Max. atomic/ionic basis occupied n:        4
  | Max. number of basis fn. types    :        3
  | Max. radial fns per species/type  :        7
  | Max. logarithmic grid size        :     1383
  | Max. radial integration grid size :       48
  | Max. angular integration grid size:      302
  | Max. angular grid division number :        8
  | Radial grid for Hartree potential :     1383
  | Number of spin channels           :        1
  | Max. number of (n,l) shells per species with '+U' treatment:        1

------------------------------------------------------------
          Reading file control.in.
------------------------------------------------------------
  Forces will be computed.
 * Warning - a code part requested a citation which was not known
 * please add it to init_citations.f90.
 * Missing reference tag: m-BEEF

  XC: Using the m-BEEF functional.
  Using libxc - Initializing
  Libxc version: 6.1.0


  ** PLEASE ** be careful using LibXC. Whilst most of the LDA, GGA and MGGA functionals,
  and hybrid variations therein, should be stable (though we always recommend testing!),
  there are several fancy functionals with e.g. range-separation, like HSE03/HSE06/LC-PBEh,
  and also MGGA functionals that depend on the laplacian of the density, like BR89,
  that are not fully implemented due to the infrastrucutre for these functionals being incomplete or non-generic.
  If you want to use these functionals please contact the development team and we will work on them with you!

  You have selected libxc functional MGGA_X_MBEEF (249)
    - Description: mBEEF exchange
    - Type: MGGA(Exchange)
    - Reference to Literature:
      [1] J. Wellendorff, K. T. Lundgaard, K. W. Jacobsen, and T. Bligaard.,  J. Chem. Phys. 140, 144107 (2014)

  You have selected libxc functional GGA_C_PBE_SOL (133)
    - Description: Perdew, Burke & Ernzerhof SOL
    - Type: GGA(Correlation)
    - Reference to Literature:
      [1] J. P. Perdew, A. Ruzsinszky, G. I. Csonka, O. A. Vydrov, G. E. Scuseria, L. A. Constantin, X. Zhou, and K. Burke.,  Phys. Rev. Lett. 100, 136406 (2008)

  Switching on meta-ggas
  Found k-point grid:         3         3         2
  Scalar relativistic treatment of kinetic energy: on-site free-atom approximation to ZORA.
  Occupation type: Gaussian broadening, width =   0.100000E+00 eV.
  Fixing petukhov mixing factor to   1.000000000000
  hydrogenic basis funktions also used for DFT+U reference states
  Reading DFT+U occupation matrix, from file
  Reading DFT+U occupation matrix, from file
  DFT+U occupation matrix, is again calculated if total energy is converged within   0.001000000000
  Convergence accuracy of total energy:  0.1000E-05
  Convergence accuracy of sum of eigenvalues:  0.1000E-02
  Convergence accuracy of self-consistent charge density:  0.1000E-05
  Convergence accuracy of forces:  0.1000E-03
 
  Reading configuration options for species Ti                  .
  | Found nuclear charge :  22.0000
  | Found atomic mass :    47.8670000000000      amu
  | Found l_max for Hartree potential  :   4
  | Found cutoff potl. onset [A], width [A], scale factor :    3.50000    1.50000    1.00000
  | Threshold for basis-dependent cutoff potential is   0.100000E-03
  | Found data for basic radial integration grid :    48 points, outermost radius =    5.000 A
  | Found multiplier for basic radial grid :   1
  | Found angular grid specification: user-specified.
  | Specified grid contains     5 separate shells.
  | Check grid settings after all constraints further below.
  | Found free-atom valence shell :  4 s   2.000
  | Found free-atom valence shell :  3 p   6.000
  | Found free-atom valence shell :  3 d   2.000
  | Found free-ion valence shell :  4 s   1.000
  | Found free-ion valence shell :  3 p   6.000
  | Found free-ion valence shell :  3 d   1.000
  | Found hydrogenic basis function :  4 f   8.000
  | Found hydrogenic basis function :  3 d   2.700
  | Found ionic basis function :  4 p , default cutoff radius.
  | Found ionic basis function :  4 s , default cutoff radius.
  | Found request for '+U' treatment for  3 d shell, U =     2.575000 eV.
  | Found coefficents for linear combination of hubbard projectors 
  Species Ti                  : Missing cutoff potential type.
  Defaulting to exp(1/x)/(1-x)^2 type cutoff potential.
  Species Ti: No 'logarithmic' tag. Using default grid for free atom:
  | Default logarithmic grid data [bohr] : 0.1000E-03 0.1000E+03 0.1012E+01
  | Will include ionic basis functions of  2.0-fold positive Ti                   ion.
  Species Ti: On-site basis accuracy parameter (for Gram-Schmidt orthonormalisation) not specified.
  Using default value basis_acc =  0.1000000E-03.
  Species Ti                  : Using default innermost maximum threshold i_radial=  2 for radial functions.
  Species Ti                  : Default cutoff onset for free atom density etc. : 0.35000000E+01 AA.
  Species Ti                  : Basic radial grid will be enhanced according to radial_multiplier =   1, to contain    48 grid points.
 
  Reading configuration options for species O                   .
  | Found nuclear charge :   8.0000
  | Found atomic mass :    15.9994000000000      amu
  | Found l_max for Hartree potential  :   4
  | Found cutoff potl. onset [A], width [A], scale factor :    3.50000    1.50000    1.00000
  | Threshold for basis-dependent cutoff potential is   0.100000E-03
  | Found data for basic radial integration grid :    36 points, outermost radius =    5.000 A
  | Found multiplier for basic radial grid :   1
  | Found angular grid specification: user-specified.
  | Specified grid contains     5 separate shells.
  | Check grid settings after all constraints further below.
  | Found free-atom valence shell :  2 s   2.000
  | Found free-atom valence shell :  2 p   4.000
  | Found free-ion valence shell :  2 s   1.000
  | Found free-ion valence shell :  2 p   3.000
  | Found hydrogenic basis function :  2 p   1.800
  | Found hydrogenic basis function :  3 d   7.600
  | Found hydrogenic basis function :  3 s   6.400
  Species O                   : Missing cutoff potential type.
  Defaulting to exp(1/x)/(1-x)^2 type cutoff potential.
  Species O : No 'logarithmic' tag. Using default grid for free atom:
  | Default logarithmic grid data [bohr] : 0.1000E-03 0.1000E+03 0.1012E+01
  Species O : On-site basis accuracy parameter (for Gram-Schmidt orthonormalisation) not specified.
  Using default value basis_acc =  0.1000000E-03.
  Species O                   : Using default innermost maximum threshold i_radial=  2 for radial functions.
  Species O                   : Default cutoff onset for free atom density etc. : 0.35000000E+01 AA.
  Species O                   : Basic radial grid will be enhanced according to radial_multiplier =   1, to contain    36 grid points.
 
  Finished reading input file 'control.in'.
 
------------------------------------------------------------


------------------------------------------------------------
          Reading geometry description geometry.in.
------------------------------------------------------------
  | The smallest distance between any two atoms is         1.75421722 AA.
  | The first atom of this pair is atom number                    109 .
  | The second atom of this pair is atom number                   119 .
  | Wigner-Seitz cell of the first atom image           0     0     0 .
  | (The Wigner-Seitz cell of the second atom is 0 0 0  by definition.)

  Symmetry information by spglib:
  | Precision set to  0.1E-04
  | Number of Operations  : 1
  | Space group           : 1
  | International         : P1
  | Schoenflies           : C1^1
  Input structure read successfully.
  The structure contains      119 atoms,  and a total of       1512.000 electrons.

  Input geometry:
  | Unit cell:
  |        9.19140000        0.00000000        0.00000000
  |        0.00000000        9.19140000        0.00000000
  |        0.00000000        0.00000000       14.79450000
  | Atomic structure:
  |       Atom                x [A]            y [A]            z [A]
  |    1: Species Ti            2.23531821        2.23532409        1.47919926
  |    2: Species Ti            0.00843578        0.00842439       -0.01164360
  |    3: Species O             0.88723276        3.69145825        1.47949855
  |    4: Species O             3.69142438        0.88720308        1.47949611
  |    5: Species O             1.40940379        1.40943519       -0.01358162
  |    6: Species O             3.19879869        3.19876750        0.00606341
  |    7: Species Ti            2.36874482        2.36874987        4.40750226
  |    8: Species Ti            0.00829623        0.00828191        2.97166294
  |    9: Species O             0.89730209        3.70384498        4.44734811
  |   10: Species O             3.70381475        0.89727443        4.44735207
  |   11: Species O             1.40960797        1.40964011        2.97274545
  |   12: Species O             3.19910992        3.19907840        2.95244505
  |   13: Species Ti            2.26174751        2.26176177        7.31922493
  |   14: Species Ti            0.05994819        0.06000833        5.86890623
  |   15: Species O             0.87710953        3.69306176        7.39839601
  |   16: Species O             3.69303676        0.87706687        7.39838580
  |   17: Species O             1.40867416        1.40870858        5.90321195
  |   18: Species O             3.19748451        3.19746415        5.95316906
  |   19: Species Ti            2.26087815        2.26089306       10.43350240
  |   20: Species Ti            0.05047198        0.05040958        8.87675489
  |   21: Species O             0.87613351        3.69237662       10.35518551
  |   22: Species O             3.69234810        0.87608556       10.35519418
  |   23: Species O             1.37370003        1.37372986        8.87699655
  |   24: Species O             3.13251488        3.13241732        8.87692626
  |   25: Species Ti            2.36896050        2.36896567       13.34486275
  |   26: Species Ti            0.05946402        0.05951917       11.88641903
  |   27: Species O             0.89613529        3.70280110       13.30612704
  |   28: Species O             3.70276795        0.89610593       13.30612185
  |   29: Species O             1.40819532        1.40822882       11.85005899
  |   30: Species O             3.19684080        3.19681880       11.80045080
  |   31: Species Ti            2.28798006        6.93069893        1.47905520
  |   32: Species Ti           -0.00590849        4.58771257        0.00279450
  |   33: Species O             0.89881600        8.30244427        1.47949234
  |   34: Species O             3.70071511        5.47884521        1.47947162
  |   35: Species O             1.40573018        5.99300630       -0.00489061
  |   36: Species O             3.19005224        7.77662253       -0.00215070
  |   37: Species Ti            2.30951014        6.84165265        4.43852496
  |   38: Species Ti           -0.00227784        4.59200884        2.95575378
  |   39: Species O             0.90452531        8.31147385        4.43733142
  |   40: Species O             3.71369739        5.49211474        4.46245340
  |   41: Species O             1.40640604        5.99365989        2.96451707
  |   42: Species O             3.19052715        7.77728218        2.96124834
  |   43: Species Ti            2.28023676        6.91898672        7.39936354
  |   44: Species Ti           -0.01376034        4.57984325        5.91190701
  |   45: Species O             0.85915374        8.27430219        7.39824492
  |   46: Species O             3.76431212        5.52228205        7.45163476
  |   47: Species O             1.40213809        5.98856114        5.93057706
  |   48: Species O             3.18049513        7.78373083        5.92559614
  |   49: Species Ti            2.27013694        6.91100315       10.35282377
  |   50: Species Ti           -0.01087157        4.60341773        8.87674782
  |   51: Species O             0.85791058        8.27300912       10.35548675
  |   52: Species O             3.76309919        5.52128967       10.30242363
  |   53: Species O             1.40477175        5.97849854        8.87659346
  |   54: Species O             3.16236627        7.80167718        8.87747979
  |   55: Species Ti            2.30404126        6.83513184       13.31398519
  |   56: Species Ti           -0.02521640        4.56898750       11.84140199
  |   57: Species O             0.90412431        8.31100807       13.31628964
  |   58: Species O             3.71304040        5.49139810       13.29119044
  |   59: Species O             1.40089802        5.98755286       11.82360809
  |   60: Species O             3.17943980        7.78216003       11.82799235
  |   61: Species Ti            6.93072477        2.28796388        1.47905347
  |   62: Species Ti            4.58770971       -0.00591617        0.00280560
  |   63: Species O             5.47887629        3.70075642        1.47946981
  |   64: Species O             8.30241299        0.89878398        1.47949202
  |   65: Species O             5.99297364        1.40576631       -0.00489302
  |   66: Species O             7.77664913        3.19002524       -0.00215108
  |   67: Species Ti            6.84160684        2.30954960        4.43851505
  |   68: Species Ti            4.59200891       -0.00229097        2.95574263
  |   69: Species O             5.49214003        3.71373004        4.46245432
  |   70: Species O             8.31144166        0.90449801        4.43732108
  |   71: Species O             5.99362428        1.40644371        2.96451912
  |   72: Species O             7.77730828        3.19050025        2.96124893
  |   73: Species Ti            6.91900295        2.28022463        7.39938646
  |   74: Species Ti            4.57984609       -0.01371133        5.91191060
  |   75: Species O             5.52234098        3.76432574        7.45159993
  |   76: Species O             8.27428178        0.85911513        7.39824928
  |   77: Species O             5.98854019        1.40215408        5.93057593
  |   78: Species O             7.78377312        3.18046116        5.92560099
  |   79: Species Ti            6.91101870        2.27012355       10.35280047
  |   80: Species Ti            4.60339181       -0.01093073        8.87674886
  |   81: Species O             5.52134839        3.76310934       10.30245751
  |   82: Species O             8.27299001        0.85787294       10.35548313
  |   83: Species O             5.97847051        1.40479673        8.87659615
  |   84: Species O             7.80170497        3.16233925        8.87748146
  |   85: Species Ti            6.83508626        2.30408011       13.31399082
  |   86: Species Ti            4.56898867       -0.02517185       11.84139810
  |   87: Species O             5.49142119        3.71307243       13.29119115
  |   88: Species O             8.31097661        0.90409952       13.31629381
  |   89: Species O             5.98752794        1.40091733       11.82361065
  |   90: Species O             7.78219908        3.17941010       11.82799056
  |   91: Species Ti            6.92572773        6.92570107        1.47918322
  |   92: Species Ti            4.57678120        4.57677511        0.02200985
  |   93: Species O             5.49096402        8.30288627        1.47945554
  |   94: Species O             8.30284911        5.49093455        1.47945593
  |   95: Species O             5.98499828        5.98503678        0.02396918
  |   96: Species O             7.79351489        7.79348070       -0.00051528
  |   97: Species Ti            6.84769917        6.84772732        4.32870052
  |   98: Species Ti            4.57708300        4.57707832        2.93754978
  |   99: Species O             5.48165036        8.28654209        4.43520456
  |  100: Species O             8.28651815        5.48162325        4.43521324
  |  101: Species O             5.98528666        5.98532293        2.93455015
  |  102: Species O             7.79387919        7.79384784        2.95852723
  |  103: Species Ti            7.06384433        7.06384978        7.20363595
  |  104: Species Ti            4.67000415        4.67007246        5.95541151
  |  105: Species O             5.49339873        8.24191208        7.40911400
  |  106: Species O             8.24191282        5.49339051        7.40911794
  |  107: Species O             6.03205739        6.03208672        5.93474574
  |  108: Species O             7.83135035        7.83132372        5.82551310
  |  109: Species Ti            7.06408124        7.06408424       10.54900576
  |  110: Species Ti            4.38366999        4.38354087        8.87740849
  |  111: Species O             5.49368099        8.24199915       10.34375533
  |  112: Species O             8.24200397        5.49367452       10.34374864
  |  113: Species O             7.67644388        7.67642323        8.87614860
  |  114: Species Ti            6.84736511        6.84739562       13.42436567
  |  115: Species Ti            4.67002894        4.67009592       11.79798166
  |  116: Species O             5.48019272        8.28505905       13.31808028
  |  117: Species O             8.28502926        5.48015921       13.31807342
  |  118: Species O             6.03185949        6.03188614       11.81722123
  |  119: Species O             7.83097905        7.83095187       11.92779502

  Lattice parameters for 3D lattice (in Angstroms) :     9.191400    9.191400   14.794500
  Angle(s) between unit vectors (in degrees)       :    90.000000   90.000000   90.000000


  Quantities derived from the lattice vectors (in Angstrom^-1):
  | Reciprocal lattice vector 1:  0.683594  0.000000  0.000000
  | Reciprocal lattice vector 2:  0.000000  0.683594  0.000000
  | Reciprocal lattice vector 3:  0.000000  0.000000  0.424697
  | Unit cell volume                               :   0.124987E+04  Angstrom^3

  Fractional coordinates:
                         L1                L2                L3
       atom_frac         0.24319671        0.24319735        0.09998305  Ti
       atom_frac         0.00091779        0.00091655       -0.00078702  Ti
       atom_frac         0.09652858        0.40162089        0.10000328  O
       atom_frac         0.40161721        0.09652535        0.10000312  O
       atom_frac         0.15333940        0.15334282       -0.00091802  O
       atom_frac         0.34802083        0.34801744        0.00040984  O
       atom_frac         0.25771317        0.25771372        0.29791492  Ti
       atom_frac         0.00090261        0.00090105        0.20086268  Ti
       atom_frac         0.09762409        0.40296853        0.30060821  O
       atom_frac         0.40296525        0.09762108        0.30060847  O
       atom_frac         0.15336162        0.15336511        0.20093585  O
       atom_frac         0.34805470        0.34805127        0.19956369  O
       atom_frac         0.24607215        0.24607370        0.49472608  Ti
       atom_frac         0.00652220        0.00652875        0.39669514  Ti
       atom_frac         0.09542720        0.40179535        0.50007746  O
       atom_frac         0.40179263        0.09542256        0.50007677  O
       atom_frac         0.15326002        0.15326377        0.39901395  O
       atom_frac         0.34787785        0.34787564        0.40239069  O
       atom_frac         0.24597756        0.24597918        0.70522846  Ti
       atom_frac         0.00549122        0.00548443        0.60000371  Ti
       atom_frac         0.09532101        0.40172081        0.69993481  O
       atom_frac         0.40171770        0.09531579        0.69993539  O
       atom_frac         0.14945493        0.14945817        0.60002004  O
       atom_frac         0.34080933        0.34079872        0.60001529  O
       atom_frac         0.25773663        0.25773720        0.90201512  Ti
       atom_frac         0.00646953        0.00647553        0.80343500  Ti
       atom_frac         0.09749715        0.40285496        0.89939687  O
       atom_frac         0.40285136        0.09749395        0.89939652  O
       atom_frac         0.15320792        0.15321157        0.80097732  O
       atom_frac         0.34780782        0.34780543        0.79762417  O
       atom_frac         0.24892618        0.75404170        0.09997331  Ti
       atom_frac        -0.00064283        0.49913099        0.00018889  Ti
       atom_frac         0.09778880        0.90328397        0.10000286  O
       atom_frac         0.40262801        0.59608386        0.10000146  O
       atom_frac         0.15293972        0.65202323       -0.00033057  O
       atom_frac         0.34706924        0.84607595       -0.00014537  O
       atom_frac         0.25126859        0.74435371        0.30001183  Ti
       atom_frac        -0.00024782        0.49959841        0.19978734  Ti
       atom_frac         0.09840996        0.90426636        0.29993115  O
       atom_frac         0.40404045        0.59752755        0.30162921  O
       atom_frac         0.15301326        0.65209434        0.20037967  O
       atom_frac         0.34712091        0.84614772        0.20015873  O
       atom_frac         0.24808373        0.75276745        0.50014286  Ti
       atom_frac        -0.00149709        0.49827483        0.39960168  Ti
       atom_frac         0.09347365        0.90022218        0.50006725  O
       atom_frac         0.40954720        0.60080968        0.50367601  O
       atom_frac         0.15254891        0.65153961        0.40086364  O
       atom_frac         0.34602946        0.84684932        0.40052696  O
       atom_frac         0.24698489        0.75189886        0.69977517  Ti
       atom_frac        -0.00118280        0.50083967        0.60000323  Ti
       atom_frac         0.09333840        0.90008150        0.69995517  O
       atom_frac         0.40941523        0.60070171        0.69636849  O
       atom_frac         0.15283545        0.65044482        0.59999280  O
       atom_frac         0.34405708        0.84880183        0.60005271  O
       atom_frac         0.25067359        0.74364426        0.89992803  Ti
       atom_frac        -0.00274348        0.49709375        0.80039217  Ti
       atom_frac         0.09836633        0.90421569        0.90008379  O
       atom_frac         0.40396897        0.59744958        0.89838727  O
       atom_frac         0.15241400        0.65142991        0.79918943  O
       atom_frac         0.34591464        0.84667842        0.79948578  O
       atom_frac         0.75404452        0.24892442        0.09997320  Ti
       atom_frac         0.49913068       -0.00064366        0.00018964  Ti
       atom_frac         0.59608724        0.40263251        0.10000134  O
       atom_frac         0.90328057        0.09778532        0.10000284  O
       atom_frac         0.65201968        0.15294366       -0.00033073  O
       atom_frac         0.84607885        0.34706631       -0.00014540  O
       atom_frac         0.74434872        0.25127289        0.30001116  Ti
       atom_frac         0.49959842       -0.00024925        0.19978658  Ti
       atom_frac         0.59753030        0.40404400        0.30162928  O
       atom_frac         0.90426286        0.09840699        0.29993045  O
       atom_frac         0.65209046        0.15301735        0.20037981  O
       atom_frac         0.84615056        0.34711799        0.20015877  O
       atom_frac         0.75276921        0.24808241        0.50014441  Ti
       atom_frac         0.49827514       -0.00149176        0.39960192  Ti
       atom_frac         0.60081609        0.40954868        0.50367366  O
       atom_frac         0.90021996        0.09346945        0.50006754  O
       atom_frac         0.65153733        0.15255065        0.40086356  O
       atom_frac         0.84685392        0.34602576        0.40052729  O
       atom_frac         0.75190055        0.24698344        0.69977360  Ti
       atom_frac         0.50083685       -0.00118923        0.60000330  Ti
       atom_frac         0.60070810        0.40941634        0.69637078  O
       atom_frac         0.90007942        0.09333431        0.69995492  O
       atom_frac         0.65044177        0.15283817        0.59999298  O
       atom_frac         0.84880486        0.34405414        0.60005282  O
       atom_frac         0.74363930        0.25067782        0.89992841  Ti
       atom_frac         0.49709388       -0.00273863        0.80039191  Ti
       atom_frac         0.59745210        0.40397246        0.89838732  O
       atom_frac         0.90421227        0.09836364        0.90008407  O
       atom_frac         0.65142720        0.15241610        0.79918961  O
       atom_frac         0.84668267        0.34591141        0.79948566  O
       atom_frac         0.75350085        0.75349795        0.09998197  Ti
       atom_frac         0.49794168        0.49794102        0.00148771  Ti
       atom_frac         0.59740236        0.90333206        0.10000037  O
       atom_frac         0.90332801        0.59739915        0.10000040  O
       atom_frac         0.65115198        0.65115617        0.00162014  O
       atom_frac         0.84791380        0.84791008       -0.00003483  O
       atom_frac         0.74501155        0.74501461        0.29258850  Ti
       atom_frac         0.49797452        0.49797401        0.19855688  Ti
       atom_frac         0.59638905        0.90155385        0.29978739  O
       atom_frac         0.90155125        0.59638611        0.29978798  O
       atom_frac         0.65118335        0.65118730        0.19835413  O
       atom_frac         0.84795343        0.84795002        0.19997480  O
       atom_frac         0.76852757        0.76852817        0.48691311  Ti
       atom_frac         0.50808410        0.50809153        0.40254226  Ti
       atom_frac         0.59766725        0.89669823        0.50080192  O
       atom_frac         0.89669831        0.59766635        0.50080219  O
       atom_frac         0.65627188        0.65627507        0.40114541  O
       atom_frac         0.85203020        0.85202730        0.39376208  O
       atom_frac         0.76855335        0.76855367        0.71303564  Ti
       atom_frac         0.47693170        0.47691765        0.60004789  Ti
       atom_frac         0.59769796        0.89670770        0.69916221  O
       atom_frac         0.89670822        0.59769725        0.69916176  O
       atom_frac         0.83517678        0.83517454        0.59996273  O
       atom_frac         0.74497521        0.74497853        0.90738894  Ti
       atom_frac         0.50808679        0.50809408        0.79745728  Ti
       atom_frac         0.59623047        0.90139250        0.90020482  O
       atom_frac         0.90138926        0.59622682        0.90020436  O
       atom_frac         0.65625035        0.65625325        0.79875773  O
       atom_frac         0.85198980        0.85198684        0.80623171  O

  Slab Identifier: This seems to be a bulk system.
 
  Finished reading input file 'geometry.in'.
 

 
  Consistency checks for stacksize environment parameter are next.
 
  | Maximum stacksize for task 0: unlimited
  | Maximum stacksize for task 1: unlimited
  | Maximum stacksize for task 2: unlimited
  | Maximum stacksize for task 3: unlimited
  | Maximum stacksize for task 4: unlimited
  | Maximum stacksize for task 5: unlimited
  | Maximum stacksize for task 6: unlimited
  | Maximum stacksize for task 7: unlimited
  | Maximum stacksize for task 8: unlimited
  | Maximum stacksize for task 9: unlimited
  | Maximum stacksize for task 10: unlimited
  | Maximum stacksize for task 11: unlimited
  | Maximum stacksize for task 12: unlimited
  | Maximum stacksize for task 13: unlimited
  | Maximum stacksize for task 14: unlimited
  | Maximum stacksize for task 15: unlimited
  | Maximum stacksize for task 16: unlimited
  | Maximum stacksize for task 17: unlimited
  | Maximum stacksize for task 18: unlimited
  | Maximum stacksize for task 19: unlimited
  | Maximum stacksize for task 20: unlimited
  | Maximum stacksize for task 21: unlimited
  | Maximum stacksize for task 22: unlimited
  | Maximum stacksize for task 23: unlimited
  | Maximum stacksize for task 24: unlimited
  | Maximum stacksize for task 25: unlimited
  | Maximum stacksize for task 26: unlimited
  | Maximum stacksize for task 27: unlimited
  | Maximum stacksize for task 28: unlimited
  | Maximum stacksize for task 29: unlimited
  | Maximum stacksize for task 30: unlimited
  | Maximum stacksize for task 31: unlimited
  | Maximum stacksize for task 32: unlimited
  | Maximum stacksize for task 33: unlimited
  | Maximum stacksize for task 34: unlimited
  | Maximum stacksize for task 35: unlimited
  | Maximum stacksize for task 36: unlimited
  | Maximum stacksize for task 37: unlimited
  | Maximum stacksize for task 38: unlimited
  | Maximum stacksize for task 39: unlimited
  | Maximum stacksize for task 40: unlimited
  | Maximum stacksize for task 41: unlimited
  | Maximum stacksize for task 42: unlimited
  | Maximum stacksize for task 43: unlimited
  | Maximum stacksize for task 44: unlimited
  | Maximum stacksize for task 45: unlimited
  | Maximum stacksize for task 46: unlimited
  | Maximum stacksize for task 47: unlimited
  | Maximum stacksize for task 48: unlimited
  | Maximum stacksize for task 49: unlimited
  | Maximum stacksize for task 50: unlimited
  | Maximum stacksize for task 51: unlimited
  | Maximum stacksize for task 52: unlimited
  | Maximum stacksize for task 53: unlimited
  | Maximum stacksize for task 54: unlimited
  | Maximum stacksize for task 55: unlimited
  | Maximum stacksize for task 56: unlimited
  | Maximum stacksize for task 57: unlimited
  | Maximum stacksize for task 58: unlimited
  | Maximum stacksize for task 59: unlimited
  | Maximum stacksize for task 60: unlimited
  | Maximum stacksize for task 61: unlimited
  | Maximum stacksize for task 62: unlimited
  | Maximum stacksize for task 63: unlimited
  | Maximum stacksize for task 64: unlimited
  | Maximum stacksize for task 65: unlimited
  | Maximum stacksize for task 66: unlimited
  | Maximum stacksize for task 67: unlimited
  | Maximum stacksize for task 68: unlimited
  | Maximum stacksize for task 69: unlimited
  | Maximum stacksize for task 70: unlimited
  | Maximum stacksize for task 71: unlimited
  | Maximum stacksize for task 72: unlimited
  | Maximum stacksize for task 73: unlimited
  | Maximum stacksize for task 74: unlimited
  | Maximum stacksize for task 75: unlimited
  | Maximum stacksize for task 76: unlimited
  | Maximum stacksize for task 77: unlimited
  | Maximum stacksize for task 78: unlimited
  | Maximum stacksize for task 79: unlimited
  | Maximum stacksize for task 80: unlimited
  | Maximum stacksize for task 81: unlimited
  | Maximum stacksize for task 82: unlimited
  | Maximum stacksize for task 83: unlimited
  | Maximum stacksize for task 84: unlimited
  | Maximum stacksize for task 85: unlimited
  | Maximum stacksize for task 86: unlimited
  | Maximum stacksize for task 87: unlimited
  | Maximum stacksize for task 88: unlimited
  | Maximum stacksize for task 89: unlimited
  | Maximum stacksize for task 90: unlimited
  | Maximum stacksize for task 91: unlimited
  | Maximum stacksize for task 92: unlimited
  | Maximum stacksize for task 93: unlimited
  | Maximum stacksize for task 94: unlimited
  | Maximum stacksize for task 95: unlimited
  | Maximum stacksize for task 96: unlimited
  | Maximum stacksize for task 97: unlimited
  | Maximum stacksize for task 98: unlimited
  | Maximum stacksize for task 99: unlimited
  | Maximum stacksize for task 100: unlimited
  | Maximum stacksize for task 101: unlimited
  | Maximum stacksize for task 102: unlimited
  | Maximum stacksize for task 103: unlimited
  | Maximum stacksize for task 104: unlimited
  | Maximum stacksize for task 105: unlimited
  | Maximum stacksize for task 106: unlimited
  | Maximum stacksize for task 107: unlimited
  | Maximum stacksize for task 108: unlimited
  | Maximum stacksize for task 109: unlimited
  | Maximum stacksize for task 110: unlimited
  | Maximum stacksize for task 111: unlimited
  | Maximum stacksize for task 112: unlimited
  | Maximum stacksize for task 113: unlimited
  | Maximum stacksize for task 114: unlimited
  | Maximum stacksize for task 115: unlimited
  | Maximum stacksize for task 116: unlimited
  | Maximum stacksize for task 117: unlimited
  | Maximum stacksize for task 118: unlimited
  | Maximum stacksize for task 119: unlimited
  | Maximum stacksize for task 120: unlimited
  | Maximum stacksize for task 121: unlimited
  | Maximum stacksize for task 122: unlimited
  | Maximum stacksize for task 123: unlimited
  | Maximum stacksize for task 124: unlimited
  | Maximum stacksize for task 125: unlimited
  | Maximum stacksize for task 126: unlimited
  | Maximum stacksize for task 127: unlimited
  | Maximum stacksize for task 128: unlimited
  | Maximum stacksize for task 129: unlimited
  | Maximum stacksize for task 130: unlimited
  | Maximum stacksize for task 131: unlimited
  | Maximum stacksize for task 132: unlimited
  | Maximum stacksize for task 133: unlimited
  | Maximum stacksize for task 134: unlimited
  | Maximum stacksize for task 135: unlimited
  | Maximum stacksize for task 136: unlimited
  | Maximum stacksize for task 137: unlimited
  | Maximum stacksize for task 138: unlimited
  | Maximum stacksize for task 139: unlimited
  | Maximum stacksize for task 140: unlimited
  | Maximum stacksize for task 141: unlimited
  | Maximum stacksize for task 142: unlimited
  | Maximum stacksize for task 143: unlimited
  | Maximum stacksize for task 144: unlimited
  | Maximum stacksize for task 145: unlimited
  | Maximum stacksize for task 146: unlimited
  | Maximum stacksize for task 147: unlimited
  | Maximum stacksize for task 148: unlimited
  | Maximum stacksize for task 149: unlimited
  | Maximum stacksize for task 150: unlimited
  | Maximum stacksize for task 151: unlimited
  | Maximum stacksize for task 152: unlimited
  | Maximum stacksize for task 153: unlimited
  | Maximum stacksize for task 154: unlimited
  | Maximum stacksize for task 155: unlimited
  | Maximum stacksize for task 156: unlimited
  | Maximum stacksize for task 157: unlimited
  | Maximum stacksize for task 158: unlimited
  | Maximum stacksize for task 159: unlimited
  | Maximum stacksize for task 160: unlimited
  | Maximum stacksize for task 161: unlimited
  | Maximum stacksize for task 162: unlimited
  | Maximum stacksize for task 163: unlimited
  | Maximum stacksize for task 164: unlimited
  | Maximum stacksize for task 165: unlimited
  | Maximum stacksize for task 166: unlimited
  | Maximum stacksize for task 167: unlimited
  | Maximum stacksize for task 168: unlimited
  | Maximum stacksize for task 169: unlimited
  | Maximum stacksize for task 170: unlimited
  | Maximum stacksize for task 171: unlimited
  | Maximum stacksize for task 172: unlimited
  | Maximum stacksize for task 173: unlimited
  | Maximum stacksize for task 174: unlimited
  | Maximum stacksize for task 175: unlimited
  | Maximum stacksize for task 176: unlimited
  | Maximum stacksize for task 177: unlimited
  | Maximum stacksize for task 178: unlimited
  | Maximum stacksize for task 179: unlimited
  | Maximum stacksize for task 180: unlimited
  | Maximum stacksize for task 181: unlimited
  | Maximum stacksize for task 182: unlimited
  | Maximum stacksize for task 183: unlimited
  | Maximum stacksize for task 184: unlimited
  | Maximum stacksize for task 185: unlimited
  | Maximum stacksize for task 186: unlimited
  | Maximum stacksize for task 187: unlimited
  | Maximum stacksize for task 188: unlimited
  | Maximum stacksize for task 189: unlimited
  | Maximum stacksize for task 190: unlimited
  | Maximum stacksize for task 191: unlimited
  | Maximum stacksize for task 192: unlimited
  | Maximum stacksize for task 193: unlimited
  | Maximum stacksize for task 194: unlimited
  | Maximum stacksize for task 195: unlimited
  | Maximum stacksize for task 196: unlimited
  | Maximum stacksize for task 197: unlimited
  | Maximum stacksize for task 198: unlimited
  | Maximum stacksize for task 199: unlimited
  | Maximum stacksize for task 200: unlimited
  | Maximum stacksize for task 201: unlimited
  | Maximum stacksize for task 202: unlimited
  | Maximum stacksize for task 203: unlimited
  | Maximum stacksize for task 204: unlimited
  | Maximum stacksize for task 205: unlimited
  | Maximum stacksize for task 206: unlimited
  | Maximum stacksize for task 207: unlimited
  | Maximum stacksize for task 208: unlimited
  | Maximum stacksize for task 209: unlimited
  | Maximum stacksize for task 210: unlimited
  | Maximum stacksize for task 211: unlimited
  | Maximum stacksize for task 212: unlimited
  | Maximum stacksize for task 213: unlimited
  | Maximum stacksize for task 214: unlimited
  | Maximum stacksize for task 215: unlimited
  | Maximum stacksize for task 216: unlimited
  | Maximum stacksize for task 217: unlimited
  | Maximum stacksize for task 218: unlimited
  | Maximum stacksize for task 219: unlimited
  | Maximum stacksize for task 220: unlimited
  | Maximum stacksize for task 221: unlimited
  | Maximum stacksize for task 222: unlimited
  | Maximum stacksize for task 223: unlimited
  | Maximum stacksize for task 224: unlimited
  | Maximum stacksize for task 225: unlimited
  | Maximum stacksize for task 226: unlimited
  | Maximum stacksize for task 227: unlimited
  | Maximum stacksize for task 228: unlimited
  | Maximum stacksize for task 229: unlimited
  | Maximum stacksize for task 230: unlimited
  | Maximum stacksize for task 231: unlimited
  | Maximum stacksize for task 232: unlimited
  | Maximum stacksize for task 233: unlimited
  | Maximum stacksize for task 234: unlimited
  | Maximum stacksize for task 235: unlimited
  | Maximum stacksize for task 236: unlimited
  | Maximum stacksize for task 237: unlimited
  | Maximum stacksize for task 238: unlimited
  | Maximum stacksize for task 239: unlimited
  | Current stacksize for task 0: unlimited
  | Current stacksize for task 1: unlimited
  | Current stacksize for task 2: unlimited
  | Current stacksize for task 3: unlimited
  | Current stacksize for task 4: unlimited
  | Current stacksize for task 5: unlimited
  | Current stacksize for task 6: unlimited
  | Current stacksize for task 7: unlimited
  | Current stacksize for task 8: unlimited
  | Current stacksize for task 9: unlimited
  | Current stacksize for task 10: unlimited
  | Current stacksize for task 11: unlimited
  | Current stacksize for task 12: unlimited
  | Current stacksize for task 13: unlimited
  | Current stacksize for task 14: unlimited
  | Current stacksize for task 15: unlimited
  | Current stacksize for task 16: unlimited
  | Current stacksize for task 17: unlimited
  | Current stacksize for task 18: unlimited
  | Current stacksize for task 19: unlimited
  | Current stacksize for task 20: unlimited
  | Current stacksize for task 21: unlimited
  | Current stacksize for task 22: unlimited
  | Current stacksize for task 23: unlimited
  | Current stacksize for task 24: unlimited
  | Current stacksize for task 25: unlimited
  | Current stacksize for task 26: unlimited
  | Current stacksize for task 27: unlimited
  | Current stacksize for task 28: unlimited
  | Current stacksize for task 29: unlimited
  | Current stacksize for task 30: unlimited
  | Current stacksize for task 31: unlimited
  | Current stacksize for task 32: unlimited
  | Current stacksize for task 33: unlimited
  | Current stacksize for task 34: unlimited
  | Current stacksize for task 35: unlimited
  | Current stacksize for task 36: unlimited
  | Current stacksize for task 37: unlimited
  | Current stacksize for task 38: unlimited
  | Current stacksize for task 39: unlimited
  | Current stacksize for task 40: unlimited
  | Current stacksize for task 41: unlimited
  | Current stacksize for task 42: unlimited
  | Current stacksize for task 43: unlimited
  | Current stacksize for task 44: unlimited
  | Current stacksize for task 45: unlimited
  | Current stacksize for task 46: unlimited
  | Current stacksize for task 47: unlimited
  | Current stacksize for task 48: unlimited
  | Current stacksize for task 49: unlimited
  | Current stacksize for task 50: unlimited
  | Current stacksize for task 51: unlimited
  | Current stacksize for task 52: unlimited
  | Current stacksize for task 53: unlimited
  | Current stacksize for task 54: unlimited
  | Current stacksize for task 55: unlimited
  | Current stacksize for task 56: unlimited
  | Current stacksize for task 57: unlimited
  | Current stacksize for task 58: unlimited
  | Current stacksize for task 59: unlimited
  | Current stacksize for task 60: unlimited
  | Current stacksize for task 61: unlimited
  | Current stacksize for task 62: unlimited
  | Current stacksize for task 63: unlimited
  | Current stacksize for task 64: unlimited
  | Current stacksize for task 65: unlimited
  | Current stacksize for task 66: unlimited
  | Current stacksize for task 67: unlimited
  | Current stacksize for task 68: unlimited
  | Current stacksize for task 69: unlimited
  | Current stacksize for task 70: unlimited
  | Current stacksize for task 71: unlimited
  | Current stacksize for task 72: unlimited
  | Current stacksize for task 73: unlimited
  | Current stacksize for task 74: unlimited
  | Current stacksize for task 75: unlimited
  | Current stacksize for task 76: unlimited
  | Current stacksize for task 77: unlimited
  | Current stacksize for task 78: unlimited
  | Current stacksize for task 79: unlimited
  | Current stacksize for task 80: unlimited
  | Current stacksize for task 81: unlimited
  | Current stacksize for task 82: unlimited
  | Current stacksize for task 83: unlimited
  | Current stacksize for task 84: unlimited
  | Current stacksize for task 85: unlimited
  | Current stacksize for task 86: unlimited
  | Current stacksize for task 87: unlimited
  | Current stacksize for task 88: unlimited
  | Current stacksize for task 89: unlimited
  | Current stacksize for task 90: unlimited
  | Current stacksize for task 91: unlimited
  | Current stacksize for task 92: unlimited
  | Current stacksize for task 93: unlimited
  | Current stacksize for task 94: unlimited
  | Current stacksize for task 95: unlimited
  | Current stacksize for task 96: unlimited
  | Current stacksize for task 97: unlimited
  | Current stacksize for task 98: unlimited
  | Current stacksize for task 99: unlimited
  | Current stacksize for task 100: unlimited
  | Current stacksize for task 101: unlimited
  | Current stacksize for task 102: unlimited
  | Current stacksize for task 103: unlimited
  | Current stacksize for task 104: unlimited
  | Current stacksize for task 105: unlimited
  | Current stacksize for task 106: unlimited
  | Current stacksize for task 107: unlimited
  | Current stacksize for task 108: unlimited
  | Current stacksize for task 109: unlimited
  | Current stacksize for task 110: unlimited
  | Current stacksize for task 111: unlimited
  | Current stacksize for task 112: unlimited
  | Current stacksize for task 113: unlimited
  | Current stacksize for task 114: unlimited
  | Current stacksize for task 115: unlimited
  | Current stacksize for task 116: unlimited
  | Current stacksize for task 117: unlimited
  | Current stacksize for task 118: unlimited
  | Current stacksize for task 119: unlimited
  | Current stacksize for task 120: unlimited
  | Current stacksize for task 121: unlimited
  | Current stacksize for task 122: unlimited
  | Current stacksize for task 123: unlimited
  | Current stacksize for task 124: unlimited
  | Current stacksize for task 125: unlimited
  | Current stacksize for task 126: unlimited
  | Current stacksize for task 127: unlimited
  | Current stacksize for task 128: unlimited
  | Current stacksize for task 129: unlimited
  | Current stacksize for task 130: unlimited
  | Current stacksize for task 131: unlimited
  | Current stacksize for task 132: unlimited
  | Current stacksize for task 133: unlimited
  | Current stacksize for task 134: unlimited
  | Current stacksize for task 135: unlimited
  | Current stacksize for task 136: unlimited
  | Current stacksize for task 137: unlimited
  | Current stacksize for task 138: unlimited
  | Current stacksize for task 139: unlimited
  | Current stacksize for task 140: unlimited
  | Current stacksize for task 141: unlimited
  | Current stacksize for task 142: unlimited
  | Current stacksize for task 143: unlimited
  | Current stacksize for task 144: unlimited
  | Current stacksize for task 145: unlimited
  | Current stacksize for task 146: unlimited
  | Current stacksize for task 147: unlimited
  | Current stacksize for task 148: unlimited
  | Current stacksize for task 149: unlimited
  | Current stacksize for task 150: unlimited
  | Current stacksize for task 151: unlimited
  | Current stacksize for task 152: unlimited
  | Current stacksize for task 153: unlimited
  | Current stacksize for task 154: unlimited
  | Current stacksize for task 155: unlimited
  | Current stacksize for task 156: unlimited
  | Current stacksize for task 157: unlimited
  | Current stacksize for task 158: unlimited
  | Current stacksize for task 159: unlimited
  | Current stacksize for task 160: unlimited
  | Current stacksize for task 161: unlimited
  | Current stacksize for task 162: unlimited
  | Current stacksize for task 163: unlimited
  | Current stacksize for task 164: unlimited
  | Current stacksize for task 165: unlimited
  | Current stacksize for task 166: unlimited
  | Current stacksize for task 167: unlimited
  | Current stacksize for task 168: unlimited
  | Current stacksize for task 169: unlimited
  | Current stacksize for task 170: unlimited
  | Current stacksize for task 171: unlimited
  | Current stacksize for task 172: unlimited
  | Current stacksize for task 173: unlimited
  | Current stacksize for task 174: unlimited
  | Current stacksize for task 175: unlimited
  | Current stacksize for task 176: unlimited
  | Current stacksize for task 177: unlimited
  | Current stacksize for task 178: unlimited
  | Current stacksize for task 179: unlimited
  | Current stacksize for task 180: unlimited
  | Current stacksize for task 181: unlimited
  | Current stacksize for task 182: unlimited
  | Current stacksize for task 183: unlimited
  | Current stacksize for task 184: unlimited
  | Current stacksize for task 185: unlimited
  | Current stacksize for task 186: unlimited
  | Current stacksize for task 187: unlimited
  | Current stacksize for task 188: unlimited
  | Current stacksize for task 189: unlimited
  | Current stacksize for task 190: unlimited
  | Current stacksize for task 191: unlimited
  | Current stacksize for task 192: unlimited
  | Current stacksize for task 193: unlimited
  | Current stacksize for task 194: unlimited
  | Current stacksize for task 195: unlimited
  | Current stacksize for task 196: unlimited
  | Current stacksize for task 197: unlimited
  | Current stacksize for task 198: unlimited
  | Current stacksize for task 199: unlimited
  | Current stacksize for task 200: unlimited
  | Current stacksize for task 201: unlimited
  | Current stacksize for task 202: unlimited
  | Current stacksize for task 203: unlimited
  | Current stacksize for task 204: unlimited
  | Current stacksize for task 205: unlimited
  | Current stacksize for task 206: unlimited
  | Current stacksize for task 207: unlimited
  | Current stacksize for task 208: unlimited
  | Current stacksize for task 209: unlimited
  | Current stacksize for task 210: unlimited
  | Current stacksize for task 211: unlimited
  | Current stacksize for task 212: unlimited
  | Current stacksize for task 213: unlimited
  | Current stacksize for task 214: unlimited
  | Current stacksize for task 215: unlimited
  | Current stacksize for task 216: unlimited
  | Current stacksize for task 217: unlimited
  | Current stacksize for task 218: unlimited
  | Current stacksize for task 219: unlimited
  | Current stacksize for task 220: unlimited
  | Current stacksize for task 221: unlimited
  | Current stacksize for task 222: unlimited
  | Current stacksize for task 223: unlimited
  | Current stacksize for task 224: unlimited
  | Current stacksize for task 225: unlimited
  | Current stacksize for task 226: unlimited
  | Current stacksize for task 227: unlimited
  | Current stacksize for task 228: unlimited
  | Current stacksize for task 229: unlimited
  | Current stacksize for task 230: unlimited
  | Current stacksize for task 231: unlimited
  | Current stacksize for task 232: unlimited
  | Current stacksize for task 233: unlimited
  | Current stacksize for task 234: unlimited
  | Current stacksize for task 235: unlimited
  | Current stacksize for task 236: unlimited
[...]
  |    7         -0.115835056423160E-02         -0.117710174032718E-02          0.218492004740768E-02
  |    8         -0.612850901797161E-03         -0.614713661891961E-03          0.312635937008030E-02
  |    9          0.292082616718179E-03          0.234873053777005E-02          0.332042364405475E-03
  |   10          0.233752335396564E-02          0.299816939724608E-03          0.329565772192389E-03
  |   11          0.818027482232589E-04          0.738085753434806E-04          0.167660021598665E-03
  |   12          0.315772223764520E-02          0.316119494758922E-02         -0.984492261939010E-03
  |   13          0.470475402553959E-02          0.469508437988992E-02          0.431707536655590E-02
  |   14          0.518730356594317E-03          0.502327782974927E-03          0.390754963428457E-02
  |   15         -0.199729108710087E-02          0.190553169440494E-02         -0.764637350122717E-03
  |   16          0.190161296184602E-02         -0.201889098649861E-02         -0.752925852640268E-03
  |   17          0.356082176201196E-03          0.359840243610649E-03         -0.453471643095844E-02
  |   18         -0.782323618130700E-03         -0.785720159686470E-03         -0.121003106863976E-02
  |   19          0.514495536135080E-02          0.513276677141863E-02         -0.244414155672358E-02
  |   20         -0.164975951579969E-02         -0.165139591159406E-02         -0.204289849251872E-02
  |   21          0.365842713211697E-03          0.334459129679063E-02          0.503471000443915E-04
  |   22          0.335468634904360E-02          0.377332649273507E-03          0.519012759983996E-04
  |   23          0.241152252797452E-04          0.944446985566884E-07         -0.153307659027950E-02
  |   24          0.275046758763683E-02          0.274669941925072E-02         -0.587880440935803E-03
  |   25         -0.171257767630663E-02         -0.171324529786723E-02         -0.402711769115495E-03
  |   26         -0.377555944606652E-03         -0.363253649233983E-03         -0.564719769896497E-02
  |   27          0.628607833397682E-03          0.177588152363431E-02         -0.462369617566411E-03
  |   28          0.178069976935483E-02          0.636160255639792E-03         -0.439142125539214E-03
  |   29          0.279067183018319E-03          0.282785206084684E-03          0.456538139935287E-02
  |   30         -0.374363580098226E-03         -0.374047320961708E-03          0.128616215604420E-02
  |   31          0.432046541777081E-02         -0.343693261128219E-03          0.134191552783007E-02
  |   32         -0.455419675012565E-02         -0.132427830559559E-02          0.646957667295814E-03
  |   33          0.304961195370071E-02         -0.132447516165900E-02          0.364363358763706E-03
  |   34         -0.248657853489735E-02          0.529415741365861E-03          0.931483765116784E-03
  |   35          0.196815136005086E-03          0.141844693818773E-02         -0.197116401632082E-02
  |   36         -0.267603889489620E-02         -0.105470161545108E-03         -0.319161167329330E-02
  |   37         -0.951150969120450E-03         -0.603126811577167E-03         -0.162649901586713E-03
  |   38         -0.180585187331861E-02          0.372529206695872E-03          0.581109984140296E-03
  |   39          0.212088487446540E-02         -0.932026124168730E-03          0.591995476012948E-03
  |   40          0.859444652202534E-03          0.583711993699321E-03         -0.103764228650781E-02
  |   41         -0.310661005153445E-04          0.154403198040237E-02          0.294003405533274E-03
  |   42         -0.143381077453961E-02         -0.616726367587650E-03          0.156049743436242E-02
  |   43         -0.488460890000344E-02         -0.482896642756367E-03         -0.947324455996153E-03
  |   44         -0.119034074131030E-02         -0.175090977765028E-02         -0.137038157950370E-02
  |   45          0.290514096249870E-02         -0.216199789607381E-02         -0.267677034011021E-03
  |   46          0.465163768773326E-02         -0.559717476145764E-03          0.187942571055265E-02
  |   47          0.962113658589222E-03          0.156876828449015E-02          0.211891998371994E-03
  |   48         -0.266249931239555E-02         -0.236269466719332E-02          0.105914990942608E-02
  |   49         -0.342672173513933E-02          0.662619381082076E-03          0.140265902740483E-02
  |   50         -0.986511217121899E-03         -0.564535623314492E-02          0.118952555485369E-03
  |   51          0.355965546760175E-02         -0.104341832076228E-02         -0.695882449071602E-03
  |   52          0.449033909193657E-02         -0.202524114852227E-02         -0.309051870136422E-02
  |   53          0.185071839041787E-02          0.303304278567366E-02         -0.109967865419830E-02
  |   54         -0.433852598861403E-02         -0.942917219378449E-03         -0.176999774287526E-02
  |   55         -0.249553937017266E-02         -0.191066829605994E-02          0.152531182040714E-02
  |   56         -0.114805557118517E-02         -0.392919354566552E-02          0.168739865173788E-02
  |   57          0.171628363632708E-02         -0.162192733361917E-02          0.923139548699162E-04
  |   58          0.174341478765902E-03          0.105056117390770E-02          0.733156406649978E-04
  |   59          0.213137299290497E-02          0.188810827003677E-02         -0.385215516271207E-02
  |   60         -0.279096559803427E-02         -0.180436906920316E-02         -0.341708824334672E-02
  |   61         -0.341960972404648E-03          0.432988381234178E-02          0.134576424566753E-02
  |   62         -0.132411351907037E-02         -0.454681569869988E-02          0.636052564667589E-03
  |   63          0.521033395083046E-03         -0.250557252606333E-02          0.942824568958526E-03
  |   64         -0.132284417346490E-02          0.305488689031344E-02          0.374803026378568E-03
  |   65          0.139326964917613E-02          0.196736371911494E-03         -0.196483908728320E-02
  |   66         -0.102774914777774E-03         -0.267568669905563E-02         -0.318221067292407E-02
  |   67         -0.606952846018555E-03         -0.933148376870299E-03         -0.183301774909401E-03
  |   68          0.362320822227970E-03         -0.179157749802990E-02          0.603400520147395E-03
  |   69          0.576167071859195E-03          0.854220279740223E-03         -0.101730415908281E-02
  |   70         -0.935634615410246E-03          0.212472464080984E-02          0.628645789847376E-03
  |   71          0.154521645620908E-02         -0.298809131509819E-04          0.295959623083809E-03
  |   72         -0.618937064461427E-03         -0.142893937345256E-02          0.156584425742942E-02
  |   73         -0.480643822930583E-03         -0.487447698188558E-02         -0.944123937934377E-03
  |   74         -0.178496705121628E-02         -0.119044159722724E-02         -0.136901258515324E-02
  |   75         -0.550861217148877E-03          0.462554499384098E-02          0.187803654457451E-02
  |   76         -0.217384163507245E-02          0.291749996088142E-02         -0.288818971249864E-03
  |   77          0.156280432917528E-02          0.975037090147787E-03          0.192016996175495E-03
  |   78         -0.235254385092806E-02         -0.268257474811529E-02          0.102157964161172E-02
  |   79          0.669066724498515E-03         -0.342692505856336E-02          0.142483151610914E-02
  |   80         -0.566478111267808E-02         -0.985274570718029E-03          0.113697966168477E-03
  |   81         -0.203664380801967E-02          0.450601104405110E-02         -0.307862050678816E-02
  |   82         -0.104463252390101E-02          0.355764484796289E-02         -0.665900840697622E-03
  |   83          0.303643490114484E-02          0.185429165244411E-02         -0.112424027826737E-02
  |   84         -0.964902013281984E-03         -0.432011769160147E-02         -0.178648395748685E-02
  |   85         -0.190274703926766E-02         -0.248336047617433E-02          0.152691830988410E-02
  |   86         -0.393748041369415E-02         -0.113114193301301E-02          0.168007834631175E-02
  |   87          0.104326201610501E-02          0.179119881877005E-03          0.634837129176542E-04
  |   88         -0.161500289596717E-02          0.169448165437165E-02          0.108806523105463E-03
  |   89          0.188513408519770E-02          0.212603138998425E-02         -0.385029808979417E-02
  |   90         -0.177466548182277E-02         -0.282433854158898E-02         -0.341316201487492E-02
  |   91         -0.253761251367155E-02         -0.255562643534566E-02         -0.450644460539893E-03
  |   92          0.345039743082766E-02          0.343338356532218E-02         -0.372673911303086E-02
  |   93         -0.128154438143293E-02          0.179972677572789E-02         -0.364180238346938E-04
  |   94          0.181303050141054E-02         -0.128499318034325E-02         -0.355025705749225E-04
  |   95         -0.216305980455634E-03         -0.221267527167552E-03          0.172889525916967E-02
  |   96          0.258559517533945E-02          0.259698489042390E-02          0.252568334464699E-02
  |   97          0.143771282771752E-03          0.131429169317695E-03          0.153339598220649E-04
  |   98          0.169636810624342E-02          0.167642124912677E-02          0.250143669783129E-02
  |   99         -0.238726492150426E-02         -0.104467469819798E-02         -0.223942074197058E-03
  |  100         -0.107871695013391E-02         -0.239894305520080E-02         -0.245550514504526E-03
  |  101         -0.679800998935640E-03         -0.685437311767233E-03          0.225040918312233E-02
  |  102          0.994286356004482E-03          0.993131855426975E-03          0.101214660220548E-03
  |  103          0.131891591722894E-02          0.130951897720440E-02          0.876410856933646E-03
  |  104         -0.199101816409709E-02         -0.197722210543796E-02          0.130747616830162E-02
  |  105          0.179904283615043E-02          0.980858227879857E-03          0.253563333888458E-02
  |  106          0.100228530594770E-02          0.180500540205056E-02          0.253106451920011E-02
  |  107          0.986965059013569E-03          0.986386089806880E-03          0.143509885906726E-02
  |  108          0.423270710526586E-03          0.426481516051908E-03          0.556838580769118E-03
  |  109          0.253152764707674E-02          0.252323712564793E-02          0.200893135115838E-03
  |  110          0.312815377445979E-02          0.313682086334130E-02         -0.822063329727583E-03
  |  111         -0.138805644119443E-02         -0.262939798495539E-02         -0.335767640056698E-03
  |  112         -0.263008233590121E-02         -0.138408324676694E-02         -0.305651494534087E-03
  |  113          0.356516937172815E-03          0.345658731689472E-03          0.312209867466813E-02
  |  114          0.702887621950106E-03          0.689640785492402E-03         -0.131601987899307E-02
  |  115         -0.294368151335970E-02         -0.293830377491585E-02         -0.274704854711136E-02
  |  116         -0.471805539830883E-03          0.184257114759566E-03          0.103319510915905E-02
  |  117          0.186009572893106E-03         -0.438432628326234E-03          0.105525874452706E-02
  |  118          0.161703384220954E-03          0.164248448470271E-03          0.338014328229361E-02
  |  119          0.260180301052345E-03          0.252110226365422E-03          0.282979549198682E-02

  ------------------------------------ 
  Start decomposition of the XC Energy 
  ------------------------------------ 
  X and C from original XC functional choice 
  Hartree-Fock Energy :          0.000000000 Ha              0.000000000 eV
  X Energy            :      -2376.758068880 Ha         -64674.877675759 eV
  C Energy            :        -69.378521688 Ha          -1887.885629688 eV
  XC Energy w/o HF    :      -2446.136590567 Ha         -66562.763305447 eV
  Total XC Energy     :      -2446.136590567 Ha         -66562.763305447 eV
  ------------------------------------ 
  LDA X and C from self-consistent density 
  X Energy LDA        :      -2139.416364407 Ha         -58216.481297463 eV
  C Energy LDA        :       -116.962975698 Ha          -3182.724503972 eV
  ------------------------------------ 
  End decomposition of the XC Energy 
  ------------------------------------ 

------------------------------------------------------------

------------------------------------------------------------------------------
  Final output of selected total energy values:

  The following output summarizes some interesting total energy values
  at the end of a run (AFTER all relaxation, molecular dynamics, etc.).

  | Total energy of the DFT / Hartree-Fock s.c.f. calculation      :       -1096147.498449896 eV
  | Final zero-broadening corrected energy (caution - metals only) :       -1096147.562589914 eV
  | For reference only, the value of 1 Hartree used in FHI-aims is :             27.211384500 eV
  | For reference only, the overall average (free atom contribution
  | + realspace contribution) of the electrostatic potential after
  | s.c.f. convergence is                                          :            -17.180851975 eV

  Before relying on these values, please be sure to understand exactly which
  total energy value is referred to by a given number. Different objects may
  all carry the same name 'total energy'. Definitions:

  Total energy of the DFT / Hartree-Fock s.c.f. calculation:
  | Note that this energy does not include ANY quantities calculated after the
  | s.c.f. cycle, in particular not ANY RPA, MP2, etc. many-body perturbation terms.

  Final zero-broadening corrected energy:
  | For metallic systems only, a broadening of the occupation numbers at the Fermi
  | level can be extrapolated back to zero broadening by an electron-gas inspired
  | formula. For all systems that are not real metals, this value can be
  | meaningless and should be avoided.

------------------------------------------------------------------------------
  Methods described in the following list of references were used in this FHI-aims run.
  If you publish the results, please make sure to cite these reference if they apply.
  FHI-aims is an academic code, and for our developers (often, Ph.D. students
  and postdocs), scientific credit in the community is essential.
  Thank you for helping us!

  For any use of FHI-aims, please cite:

    Volker Blum, Ralf Gehrke, Felix Hanke, Paula Havu, Ville Havu,
    Xinguo Ren, Karsten Reuter, and Matthias Scheffler
    'Ab initio molecular simulations with numeric atom-centered orbitals'
    Computer Physics Communications 180, 2175-2196 (2009)
    http://doi.org/10.1016/j.cpc.2009.06.022


  The provided symmetry information was generated with SPGlib:

    Atsushi Togo, Yusuke Seto, Dimitar Pashov
    SPGlib 1.7.3 obtained from http://spglib.sourceforge.net
    Copyright (C) 2008 Atsushi Togo


 DFT+U infrastructure was used in your run
 please cite:

 Matthias Kick, Karsten Reuter and Harald Oberhofer,
 Intricacies Of DFT+U, not only in a Numeric Atom Centered Orbital Framework

 Journal of Chemical Theory and Computation
 https://


  The ELSI infrastructure was used in your run to solve the Kohn-Sham electronic structure.
  Please check out http://elsi-interchange.org to learn more.
  If scalability is important for your project, please acknowledge ELSI by citing:

    V. W-z. Yu, F. Corsetti, A. Garcia, W. P. Huhn, M. Jacquelin, W. Jia,
    B. Lange, L. Lin, J. Lu, W. Mi, A. Seifitokaldani, A. Vazquez-Mayagoitia,
    C. Yang, H. Yang, and V. Blum
    'ELSI: A unified software interface for Kohn-Sham electronic structure solvers'
    Computer Physics Communications 222, 267-285 (2018).
    http://doi.org/10.1016/j.cpc.2017.09.007


  For the real-space grid partitioning and parallelization used in this calculation, please cite:

    Ville Havu, Volker Blum, Paula Havu, and Matthias Scheffler,
    'Efficient O(N) integration for all-electron electronic structure calculation'
    'using numerically tabulated basis functions'
    Journal of Computational Physics 228, 8367-8379 (2009).
    http://doi.org/10.1016/j.jcp.2009.08.008

  Of course, there are many other important community references, e.g., those cited in the
  above references. Our list is limited to references that describe implementations in the
  FHI-aims code. The reason is purely practical (length of this list) - please credit others as well.

 * A warning was issued further up regarding the accuracy of onsite integrals.
   An integral with a negative eigenvalue was among the flagged integrals.
   In most standard situations, this warning is probably harmless.
   If needed, this can be verified by adjusting the radial_multiplier flag.

   One or more s.c.f. cycles took more than 50 s.c.f. iterations.
   It might be worth adjusting your convergence settings. For example,
   metals need a larger broadening and a smaller "charge_mix_param" value than semiconductors.

 * Warning - a code part requested a citation which was not known
 * to subroutine cite_reference in module applicable_citations.f90 .
 * Likely this is a programmer's oversight. Please let us know.

------------------------------------------------------------
          Leaving FHI-aims.
          Date     :  20250609, Time     :  095350.073

          Computational steps:
          | Number of self-consistency cycles          :          116
          | Number of SCF (re)initializations          :            1

          Detailed time accounting                     :  max(cpu_time)    wall_clock(cpu1)
          | Total time                                  :      448.026 s         450.280 s
          | Preparation time                            :        0.503 s           0.501 s
          | Boundary condition initalization            :        0.223 s           0.224 s
          | Grid partitioning                           :        0.325 s           0.325 s
          | Preloading free-atom quantities on grid     :        0.457 s           0.459 s
          | Free-atom superposition energy              :        0.054 s           0.054 s
          | Total time for integrations                 :      110.533 s         110.903 s
          | Total time for solution of K.-S. equations  :      121.782 s         119.512 s
          | Total time for density & force components   :      152.989 s         153.362 s
          | Total time for mixing                       :        1.594 s           0.799 s
          | Total time for Hartree multipole update     :        0.847 s           0.898 s
          | Total time for Hartree multipole sum        :       35.349 s          35.443 s
          | Total time for total energy evaluation      :        0.057 s           0.265 s
          | Total time NSC force correction             :        1.465 s           1.616 s
          | Total time for scaled ZORA corrections      :        0.000 s           0.000 s

          Partial memory accounting:
          | Residual value for overall tracked memory usage across tasks:     0.000000 MB (should be 0.000000 MB)
          | Peak values for overall tracked memory usage:
          |   Minimum:      148.212 MB (on task  15 after allocating temp_ham_ovlp)
          |   Maximum:      148.926 MB (on task   0 after allocating temp_ham_ovlp)
          |   Average:      148.584 MB
          | Largest tracked array allocation:
          |   Minimum:       41.120 MB (overlap_matrix on task   0)
          |   Maximum:       41.120 MB (overlap_matrix on task   0)
          |   Average:       41.120 MB
          Note:  These values currently only include a subset of arrays which are explicitly tracked.
          The "true" memory usage will be greater.

          Have a nice day.
------------------------------------------------------------
