------------------------------------------------------------
          Invoking FHI-aims ...

          When using FHI-aims, please cite the following reference:

            Volker Blum, Ralf Gehrke, Felix Hanke, Paula Havu,
            Ville Havu, Xinguo Ren, Karsten Reuter, and Matthias Scheffler,
            'Ab Initio Molecular Simulations with Numeric Atom-Centered Orbitals',
            Computer Physics Communications 180, 2175-2196 (2009)

          In addition, many other developments in FHI-aims are likely important for
          your particular application. If so, please cite them. A partial list of references
          is written at the end of this file. Thank you for giving credit to the authors
          of these developments.

          For general information about FHI-aims please find us at

            https://fhi-aims.org

          Online tutorials can be found at

            https://fhi-aims-club.gitlab.io/tutorials/tutorials-overview/

          For any questions about FHI-aims, please visit our slack channel at

            https://fhi-aims.slack.com

          and our main development and support site at

            https://aims-git.rz-berlin.mpg.de .

          The latter site, in particular, has a wiki to collect information, as well
          as an issue tracker to log discussions, suggest improvements, and report issues
          or bugs. https://aims-git.rz-berlin.mpg.de is also the main development site
          of the project and all new and updated code versions can be obtained there.
          Please send an email to aims-coordinators@fhi-berlin.mpg.de and we will add
          you to these sites. They are for you and everyone is welcome there.

------------------------------------------------------------



  Date     :  20250603, Time     :  134626.019
  Time zero on CPU 1             :   0.112330000000000E+00  s.
  Internal wall clock time zero  :           518190386.019  s.

  FHI-aims created a unique identifier for this run for later identification
  aims_uuid : 5C9E451A-EEB2-4C4D-A518-1CEA71773200

  Build configuration of the current instance of FHI-aims
  -------------------------------------------------------
  FHI-aims version      : 230905
  Commit number         : 6362ac204
  CMake host system     : Linux-3.10.0-1160.119.1.el7.x86_64
  CMake version         : 3.14.3
  Fortran compiler      : /apps/compilers/intel/2018.2/compilers_and_libraries_2018/linux/mpi/intel64/bin/mpif90 (Intel) version 18.0.2.20180210
  Fortran compiler flags: -O3 -ip -fp-model precise
  C compiler            : /apps/compilers/intel/2018.2/compilers_and_libraries_2018/linux/bin/intel64/icc (Intel) version 18.0.2.20180210
  C compiler flags      : -O3 -ip -fp-model precise
  C++ compiler          : /apps/compilers/intel/2018.2/compilers_and_libraries_2018/linux/bin/intel64/icpc (Intel) version 18.0.2.20180210
  C++ compiler flags    : -O3 -ip -fp-model precise
  HIP compiler          :
  HIP compiler flags    :
  HIP GPU arch          :
  ELPA2 kernel          : AVX2
  Using MPI
  Using ScaLAPACK
  Using LibXC
  Using i-PI
  Using RLSY
  Linking against: /apps/compilers/intel/2018.2/compilers_and_libraries_2018/linux/mkl/lib/intel64/libmkl_intel_lp64.so
                   /apps/compilers/intel/2018.2/compilers_and_libraries_2018/linux/mkl/lib/intel64/libmkl_intel_thread.so
                   /apps/compilers/intel/2018.2/compilers_and_libraries_2018/linux/mkl/lib/intel64/libmkl_core.so
                   /apps/compilers/intel/2018.2/compilers_and_libraries_2018/linux/mkl/lib/intel64/libmkl_blacs_intelmpi_lp64.so
                   /apps/compilers/intel/2018.2/compilers_and_libraries_2018/linux/mkl/lib/intel64/libmkl_scalapack_lp64.so
                   /usr/lib64/libpthread.so

  Using       40 parallel tasks.
  Task        0 on host ccs0135 reporting.
  Task        1 on host ccs0135 reporting.
  Task        2 on host ccs0135 reporting.
  Task        3 on host ccs0135 reporting.
  Task        4 on host ccs0135 reporting.
  Task        5 on host ccs0135 reporting.
  Task        6 on host ccs0135 reporting.
  Task        7 on host ccs0135 reporting.
  Task        8 on host ccs0135 reporting.
  Task        9 on host ccs0135 reporting.
  Task       10 on host ccs0135 reporting.
  Task       11 on host ccs0135 reporting.
  Task       12 on host ccs0135 reporting.
  Task       13 on host ccs0135 reporting.
  Task       14 on host ccs0135 reporting.
  Task       15 on host ccs0135 reporting.
  Task       16 on host ccs0135 reporting.
  Task       17 on host ccs0135 reporting.
  Task       18 on host ccs0135 reporting.
  Task       19 on host ccs0135 reporting.
  Task       20 on host ccs0135 reporting.
  Task       21 on host ccs0135 reporting.
  Task       22 on host ccs0135 reporting.
  Task       23 on host ccs0135 reporting.
  Task       24 on host ccs0135 reporting.
  Task       25 on host ccs0135 reporting.
  Task       26 on host ccs0135 reporting.
  Task       27 on host ccs0135 reporting.
  Task       28 on host ccs0135 reporting.
  Task       29 on host ccs0135 reporting.
  Task       30 on host ccs0135 reporting.
  Task       31 on host ccs0135 reporting.
  Task       32 on host ccs0135 reporting.
  Task       33 on host ccs0135 reporting.
  Task       34 on host ccs0135 reporting.
  Task       35 on host ccs0135 reporting.
  Task       36 on host ccs0135 reporting.
  Task       37 on host ccs0135 reporting.
  Task       38 on host ccs0135 reporting.
  Task       39 on host ccs0135 reporting.

  Memory overcommitment is allowed on your operating system.

  Obtaining array dimensions for all initial allocations:
  
  -----------------------------------------------------------------------
  Parsing control.in (first pass over file, find array dimensions only).
  The contents of control.in will be repeated verbatim below
  unless switched off by setting 'verbatim_writeout .false.' .
  in the first line of control.in .
  -----------------------------------------------------------------------
  
  #===============================================================================
  # FHI-aims file: ./control.in
  # Created using the Atomic Simulation Environment (ASE)
  # Wed Nov  9 14:53:37 2022
  #===============================================================================
  spin                               none
  relativistic                       atomic_zora scalar
  compute_forces                     .true.
  override_warning_libxc             true
  xc                                 mbeef
  k_grid                             5 5 8
  occupation_type                    gaussian 0.1
  plus_u_petukhov_mixing             1
  plus_u_use_hydros                  True
  plus_u_matrix_control              True
  sc_accuracy_etot                   1e-06
  sc_accuracy_eev                    0.001
  sc_accuracy_rho                    1e-06
  sc_accuracy_forces                 0.0001
  relax_geometry                     bfgs 0.01
  #===============================================================================
  
  ################################################################################
  #
  #  FHI-aims code project
  #  VB, Fritz-Haber Institut, 2009
  #
  #  Suggested "light" defaults for Ti atom (to be pasted into control.in file)
  #  Be sure to double-check any results obtained with these settings for post-processing,
  #  e.g., with the "tight" defaults and larger basis sets.
  #
  ################################################################################
    species        Ti
  #     global species definitions
      nucleus             22
      mass                47.867
  #
      l_hartree           4
  #
      cut_pot             3.5          1.5  1.0
      basis_dep_cutoff    1e-4
  #
      radial_base         48 5.0
      radial_multiplier   1
      angular_grids       specified
        division   0.5171   50
        division   0.9824  110
        division   1.2917  194
        division   1.4940  302
  #      division   1.6934  434
  #      division   1.8425  590
  #      division   2.1901  770
  #      division   2.2896  974
  #      division   2.8244 1202
  #      outer_grid  974
        outer_grid  302
  ################################################################################
  #
  #  Definition of "minimal" basis
  #
  ################################################################################
  #     valence basis states
      valence      4  s   2.
      valence      3  p   6.
      valence      3  d   2.
  #     ion occupancy
      ion_occ      4  s   1.
      ion_occ      3  p   6.
      ion_occ      3  d   1.
  ################################################################################
  #
  #  Suggested additional basis functions. For production calculations,
  #  uncomment them one after another (the most important basis functions are
  #  listed first).
  #
  #  Constructed for dimers: 1.6 A, 1.85 A, 2.5 A, 3.25 A, 4.25 A
  #
  ################################################################################
  #  "First tier" - improvements: -396.25 meV to -19.41 meV
       hydro 4 f 8
       hydro 3 d 2.7
       ionic 4 p auto
  #     hydro 5 g 11.6
       ionic 4 s auto
  #  "Second tier" - improvements: -16.30 meV to -2.03 meV
  #     hydro 3 d 4.4
  #     hydro 6 h 16
  #     hydro 4 f 9.4
  #     hydro 4 p 4.5
  #     hydro 1 s 0.5
  #  "Third tier" - improvements: -6.28 meV to -0.37 meV
  #     hydro 4 d 6.4
  #     hydro 4 f 10
  #     hydro 5 g 12
  #     hydro 2 p 1.7
  #     hydro 6 h 16.4
  #     hydro 4 s 3.8
  #  Further basis functions: -0.45 meV and smaller improvements
  #     hydro 3 d 8.8
  #     hydro 5 p 18
  #     hydro 4 f 22.4
  #     hydro 5 f 7.2  # -0.16 meV
  #     hydro 3 d 2.1  # -0.11 meV
  #     hydro 5 g 7.4  # -0.09 meV
  plus_u 3 d 2.575
  hubbard_coefficient 0.752 -0.486 0 0
  ################################################################################
  #
  #  FHI-aims code project
  #  VB, Fritz-Haber Institut, 2009
  #
  #  Suggested "light" defaults for O atom (to be pasted into control.in file)
  #  Be sure to double-check any results obtained with these settings for post-processing,
  #  e.g., with the "tight" defaults and larger basis sets.
  #
  ################################################################################
    species        O
  #     global species definitions
      nucleus             8
      mass                15.9994
  #
      l_hartree           4
  #
      cut_pot             3.5  1.5  1.0
      basis_dep_cutoff    1e-4
  #
      radial_base         36 5.0
      radial_multiplier   1
       angular_grids specified
        division   0.2659   50
        division   0.4451  110
        division   0.6052  194
        division   0.7543  302
  #      division   0.8014  434
  #      division   0.8507  590
  #      division   0.8762  770
  #      division   0.9023  974
  #      division   1.2339 1202
  #      outer_grid 974
        outer_grid 302
  ################################################################################
  #
  #  Definition of "minimal" basis
  #
  ################################################################################
  #     valence basis states
      valence      2  s   2.
      valence      2  p   4.
  #     ion occupancy
      ion_occ      2  s   1.
      ion_occ      2  p   3.
  ################################################################################
  #
  #  Suggested additional basis functions. For production calculations,
  #  uncomment them one after another (the most important basis functions are
  #  listed first).
  #
  #  Constructed for dimers: 1.0 A, 1.208 A, 1.5 A, 2.0 A, 3.0 A
  #
  ################################################################################
  #  "First tier" - improvements: -699.05 meV to -159.38 meV
       hydro 2 p 1.8
       hydro 3 d 7.6
       hydro 3 s 6.4
  #  "Second tier" - improvements: -49.91 meV to -5.39 meV
  #     hydro 4 f 11.6
  #     hydro 3 p 6.2
  #     hydro 3 d 5.6
  #     hydro 5 g 17.6
  #     hydro 1 s 0.75
  #  "Third tier" - improvements: -2.83 meV to -0.50 meV
  #     ionic 2 p auto
  #     hydro 4 f 10.8
  #     hydro 4 d 4.7
  #     hydro 2 s 6.8
  #  "Fourth tier" - improvements: -0.40 meV to -0.12 meV
  #     hydro 3 p 5
  #     hydro 3 s 3.3
  #     hydro 5 g 15.6
  #     hydro 4 f 17.6
  #     hydro 4 d 14
  # Further basis functions - -0.08 meV and below
  #     hydro 3 s 2.1
  #     hydro 4 d 11.6
  #     hydro 3 p 16
  #     hydro 2 s 17.2
  plus_u 2 p 0
  hubbard_coefficient 1 0 0 0
  
  
  -----------------------------------------------------------------------
  Completed first pass over input file control.in .
  -----------------------------------------------------------------------
  
  
  -----------------------------------------------------------------------
  Parsing geometry.in (first pass over file, find array dimensions only).
  The contents of geometry.in will be repeated verbatim below
  unless switched off by setting 'verbatim_writeout .false.' .
  in the first line of geometry.in .
  -----------------------------------------------------------------------
  
  #=======================================================
  # FHI-aims file: ./geometry.in
  # Created using the Atomic Simulation Environment (ASE)
  # Tue Apr  4 15:01:14 2023
  #=======================================================
  lattice_vector 4.5956999999999999 0.0000000000000000 0.0000000000000000
  lattice_vector 0.0000000000000000 4.5956999999999999 0.0000000000000000
  lattice_vector 0.0000000000000000 0.0000000000000000 2.9588999999999999
  atom_frac 0.4999999998497530 0.4999999996682105 0.4999999995991619 Ti
  atom_frac 0.0000000001187973 0.0000000000383633 0.0000000004958236 Ti
  atom_frac 0.1940465828751225 0.8059540880813520 0.4999999999427255 O
  atom_frac 0.8059534171625321 0.1940459120818119 0.4999999999787667 O
  atom_frac 0.3059534171376675 0.3059540880702390 0.0000000000011476 O
  atom_frac 0.6940465828561277 0.6940459120600232 -0.0000000000176252 O
  
  -----------------------------------------------------------------------
  Completed first pass over input file geometry.in .
  -----------------------------------------------------------------------
  

  Basic array size parameters:
  | Number of species                 :        2
  | Number of atoms                   :        6
  | Number of lattice vectors         :        3
  | Max. basis fn. angular momentum   :        3
  | Max. atomic/ionic basis occupied n:        4
  | Max. number of basis fn. types    :        3
  | Max. radial fns per species/type  :        7
  | Max. logarithmic grid size        :     1383
  | Max. radial integration grid size :       48
  | Max. angular integration grid size:      302
  | Max. angular grid division number :        8
  | Radial grid for Hartree potential :     1383
  | Number of spin channels           :        1
  | Max. number of (n,l) shells per species with '+U' treatment:        1

------------------------------------------------------------
          Reading file control.in.
------------------------------------------------------------
  Spin treatment: No spin polarisation.
  Scalar relativistic treatment of kinetic energy: on-site free-atom approximation to ZORA.
  Forces will be computed.
 * Warning - a code part requested a citation which was not known
 * please add it to init_citations.f90.
 * Missing reference tag: m-BEEF

  XC: Using the m-BEEF functional.
  Using libxc - Initializing
  Libxc version: 6.1.0


  ** PLEASE ** be careful using LibXC. Whilst most of the LDA, GGA and MGGA functionals,
  and hybrid variations therein, should be stable (though we always recommend testing!),
  there are several fancy functionals with e.g. range-separation, like HSE03/HSE06/LC-PBEh,
  and also MGGA functionals that depend on the laplacian of the density, like BR89,
  that are not fully implemented due to the infrastrucutre for these functionals being incomplete or non-generic.
  If you want to use these functionals please contact the development team and we will work on them with you!

  You have selected libxc functional MGGA_X_MBEEF (249)
    - Description: mBEEF exchange
    - Type: MGGA(Exchange)
    - Reference to Literature:
      [1] J. Wellendorff, K. T. Lundgaard, K. W. Jacobsen, and T. Bligaard.,  J. Chem. Phys. 140, 144107 (2014)

  You have selected libxc functional GGA_C_PBE_SOL (133)
    - Description: Perdew, Burke & Ernzerhof SOL
    - Type: GGA(Correlation)
    - Reference to Literature:
      [1] J. P. Perdew, A. Ruzsinszky, G. I. Csonka, O. A. Vydrov, G. E. Scuseria, L. A. Constantin, X. Zhou, and K. Burke.,  Phys. Rev. Lett. 100, 136406 (2008)

  Switching on meta-ggas
  Found k-point grid:         5         5         8
  Occupation type: Gaussian broadening, width =   0.100000E+00 eV.
  Fixing petukhov mixing factor to   1.000000000000
  hydrogenic basis funktions also used for DFT+U reference states
  Convergence accuracy of total energy:  0.1000E-05
  Convergence accuracy of sum of eigenvalues:  0.1000E-02
  Convergence accuracy of self-consistent charge density:  0.1000E-05
  Convergence accuracy of forces:  0.1000E-03
  Geometry relaxation: Modified BFGS - TRM (trust radius method) for lattice optimization.
  Convergence accuracy for geometry relaxation: Maximum force <   0.100000E-01 eV/A.
 
  Reading configuration options for species Ti                  .
  | Found nuclear charge :  22.0000
  | Found atomic mass :    47.8670000000000      amu
  | Found l_max for Hartree potential  :   4
  | Found cutoff potl. onset [A], width [A], scale factor :    3.50000    1.50000    1.00000
  | Threshold for basis-dependent cutoff potential is   0.100000E-03
  | Found data for basic radial integration grid :    48 points, outermost radius =    5.000 A
  | Found multiplier for basic radial grid :   1
  | Found angular grid specification: user-specified.
  | Specified grid contains     5 separate shells.
  | Check grid settings after all constraints further below.
  | Found free-atom valence shell :  4 s   2.000
  | Found free-atom valence shell :  3 p   6.000
  | Found free-atom valence shell :  3 d   2.000
  | Found free-ion valence shell :  4 s   1.000
  | Found free-ion valence shell :  3 p   6.000
  | Found free-ion valence shell :  3 d   1.000
  | Found hydrogenic basis function :  4 f   8.000
  | Found hydrogenic basis function :  3 d   2.700
  | Found ionic basis function :  4 p , default cutoff radius.
  | Found ionic basis function :  4 s , default cutoff radius.
  | Found request for '+U' treatment for  3 d shell, U =     2.575000 eV.
  | Found coefficents for linear combination of hubbard projectors 
  Species Ti                  : Missing cutoff potential type.
  Defaulting to exp(1/x)/(1-x)^2 type cutoff potential.
  Species Ti: No 'logarithmic' tag. Using default grid for free atom:
  | Default logarithmic grid data [bohr] : 0.1000E-03 0.1000E+03 0.1012E+01
  | Will include ionic basis functions of  2.0-fold positive Ti                   ion.
  Species Ti: On-site basis accuracy parameter (for Gram-Schmidt orthonormalisation) not specified.
  Using default value basis_acc =  0.1000000E-03.
  Species Ti                  : Using default innermost maximum threshold i_radial=  2 for radial functions.
  Species Ti                  : Default cutoff onset for free atom density etc. : 0.35000000E+01 AA.
  Species Ti                  : Basic radial grid will be enhanced according to radial_multiplier =   1, to contain    48 grid points.
 
  Reading configuration options for species O                   .
  | Found nuclear charge :   8.0000
  | Found atomic mass :    15.9994000000000      amu
  | Found l_max for Hartree potential  :   4
  | Found cutoff potl. onset [A], width [A], scale factor :    3.50000    1.50000    1.00000
  | Threshold for basis-dependent cutoff potential is   0.100000E-03
  | Found data for basic radial integration grid :    36 points, outermost radius =    5.000 A
  | Found multiplier for basic radial grid :   1
  | Found angular grid specification: user-specified.
  | Specified grid contains     5 separate shells.
  | Check grid settings after all constraints further below.
  | Found free-atom valence shell :  2 s   2.000
  | Found free-atom valence shell :  2 p   4.000
  | Found free-ion valence shell :  2 s   1.000
  | Found free-ion valence shell :  2 p   3.000
  | Found hydrogenic basis function :  2 p   1.800
  | Found hydrogenic basis function :  3 d   7.600
  | Found hydrogenic basis function :  3 s   6.400
  | Found request for '+U' treatment for  2 p shell, U =     0.000000 eV.
  | Found coefficents for linear combination of hubbard projectors 
  Species O                   : Missing cutoff potential type.
  Defaulting to exp(1/x)/(1-x)^2 type cutoff potential.
  Species O : No 'logarithmic' tag. Using default grid for free atom:
  | Default logarithmic grid data [bohr] : 0.1000E-03 0.1000E+03 0.1012E+01
  Species O : On-site basis accuracy parameter (for Gram-Schmidt orthonormalisation) not specified.
  Using default value basis_acc =  0.1000000E-03.
  Species O                   : Using default innermost maximum threshold i_radial=  2 for radial functions.
  Species O                   : Default cutoff onset for free atom density etc. : 0.35000000E+01 AA.
  Species O                   : Basic radial grid will be enhanced according to radial_multiplier =   1, to contain    36 grid points.
 
  Finished reading input file 'control.in'.
 
------------------------------------------------------------


------------------------------------------------------------
          Reading geometry description geometry.in.
------------------------------------------------------------
  | The smallest distance between any two atoms is         1.94404463 AA.
  | The first atom of this pair is atom number                      1 .
  | The second atom of this pair is atom number                     5 .
  | Wigner-Seitz cell of the first atom image           0     0     0 .
  | (The Wigner-Seitz cell of the second atom is 0 0 0  by definition.)

  Symmetry information by spglib:
  | Precision set to  0.1E-04
  | Number of Operations  : 16
  | Space group           : 136
  | International         : P4_2/mnm c
  | Schoenflies           : D4h^14
  Input structure read successfully.
  The structure contains        6 atoms,  and a total of         76.000 electrons.

  Input geometry:
  | Unit cell:
  |        4.59570000        0.00000000        0.00000000
  |        0.00000000        4.59570000        0.00000000
  |        0.00000000        0.00000000        2.95890000
  | Atomic structure:
  |       Atom                x [A]            y [A]            z [A]
  |    1: Species Ti            2.29785000        2.29785000        1.47945000
  |    2: Species Ti            0.00000000        0.00000000        0.00000000
  |    3: Species O             0.89177988        3.70392320        1.47945000
  |    4: Species O             3.70392012        0.89177680        1.47945000
  |    5: Species O             1.40607012        1.40607320        0.00000000
  |    6: Species O             3.18962988        3.18962680       -0.00000000

  Lattice parameters for 3D lattice (in Angstroms) :     4.595700    4.595700    2.958900
  Angle(s) between unit vectors (in degrees)       :    90.000000   90.000000   90.000000


  Quantities derived from the lattice vectors (in Angstrom^-1):
  | Reciprocal lattice vector 1:  1.367188  0.000000  0.000000
  | Reciprocal lattice vector 2:  0.000000  1.367188  0.000000
  | Reciprocal lattice vector 3:  0.000000  0.000000  2.123487
  | Unit cell volume                               :   0.624933E+02  Angstrom^3

  Fractional coordinates:
                         L1                L2                L3
       atom_frac         0.50000000        0.50000000        0.50000000  Ti
       atom_frac         0.00000000        0.00000000        0.00000000  Ti
       atom_frac         0.19404658        0.80595409        0.50000000  O
       atom_frac         0.80595342        0.19404591        0.50000000  O
       atom_frac         0.30595342        0.30595409        0.00000000  O
       atom_frac         0.69404658        0.69404591       -0.00000000  O

  Slab Identifier: This seems to be a bulk system.
 
  Finished reading input file 'geometry.in'.
 

 
  Consistency checks for stacksize environment parameter are next.
 
  | Maximum stacksize for task 0: unlimited
  | Maximum stacksize for task 1: unlimited
  | Maximum stacksize for task 2: unlimited
  | Maximum stacksize for task 3: unlimited
  | Maximum stacksize for task 4: unlimited
  | Maximum stacksize for task 5: unlimited
  | Maximum stacksize for task 6: unlimited
  | Maximum stacksize for task 7: unlimited
  | Maximum stacksize for task 8: unlimited
  | Maximum stacksize for task 9: unlimited
  | Maximum stacksize for task 10: unlimited
  | Maximum stacksize for task 11: unlimited
  | Maximum stacksize for task 12: unlimited
  | Maximum stacksize for task 13: unlimited
  | Maximum stacksize for task 14: unlimited
  | Maximum stacksize for task 15: unlimited
  | Maximum stacksize for task 16: unlimited
  | Maximum stacksize for task 17: unlimited
  | Maximum stacksize for task 18: unlimited
  | Maximum stacksize for task 19: unlimited
  | Maximum stacksize for task 20: unlimited
  | Maximum stacksize for task 21: unlimited
  | Maximum stacksize for task 22: unlimited
  | Maximum stacksize for task 23: unlimited
  | Maximum stacksize for task 24: unlimited
  | Maximum stacksize for task 25: unlimited
  | Maximum stacksize for task 26: unlimited
  | Maximum stacksize for task 27: unlimited
  | Maximum stacksize for task 28: unlimited
  | Maximum stacksize for task 29: unlimited
  | Maximum stacksize for task 30: unlimited
  | Maximum stacksize for task 31: unlimited
  | Maximum stacksize for task 32: unlimited
  | Maximum stacksize for task 33: unlimited
  | Maximum stacksize for task 34: unlimited
  | Maximum stacksize for task 35: unlimited
  | Maximum stacksize for task 36: unlimited
  | Maximum stacksize for task 37: unlimited
  | Maximum stacksize for task 38: unlimited
  | Maximum stacksize for task 39: unlimited
  | Current stacksize for task 0: unlimited
  | Current stacksize for task 1: unlimited
  | Current stacksize for task 2: unlimited
  | Current stacksize for task 3: unlimited
  | Current stacksize for task 4: unlimited
  | Current stacksize for task 5: unlimited
  | Current stacksize for task 6: unlimited
  | Current stacksize for task 7: unlimited
  | Current stacksize for task 8: unlimited
  | Current stacksize for task 9: unlimited
  | Current stacksize for task 10: unlimited
  | Current stacksize for task 11: unlimited
  | Current stacksize for task 12: unlimited
  | Current stacksize for task 13: unlimited
  | Current stacksize for task 14: unlimited
  | Current stacksize for task 15: unlimited
  | Current stacksize for task 16: unlimited
  | Current stacksize for task 17: unlimited
  | Current stacksize for task 18: unlimited
  | Current stacksize for task 19: unlimited
  | Current stacksize for task 20: unlimited
  | Current stacksize for task 21: unlimited
  | Current stacksize for task 22: unlimited
  | Current stacksize for task 23: unlimited
  | Current stacksize for task 24: unlimited
  | Current stacksize for task 25: unlimited
  | Current stacksize for task 26: unlimited
  | Current stacksize for task 27: unlimited
  | Current stacksize for task 28: unlimited
  | Current stacksize for task 29: unlimited
  | Current stacksize for task 30: unlimited
  | Current stacksize for task 31: unlimited
  | Current stacksize for task 32: unlimited
  | Current stacksize for task 33: unlimited
  | Current stacksize for task 34: unlimited
  | Current stacksize for task 35: unlimited
  | Current stacksize for task 36: unlimited
  | Current stacksize for task 37: unlimited
  | Current stacksize for task 38: unlimited
  | Current stacksize for task 39: unlimited
 
  Consistency checks for the contents of control.in are next.
 
  MPI_IN_PLACE appears to work with this MPI implementation.
  | Keeping use_mpi_in_place .true. (see manual).
  Target number of points in a grid batch is not set. Defaulting to  100
  Method for grid partitioning is not set. Defaulting to parallel hash+maxmin partitioning.
  Batch size limit is not set. Defaulting to    200
  By default, will store active basis functions for each batch.
  If in need of memory, prune_basis_once .false. can be used to disable this option.
  communication_type for Hartree potential was not specified.
  Defaulting to calc_hartree .
  Defaulting to Pulay charge density mixer.
  Pulay mixer: Number of relevant iterations not set.
  Defaulting to    8 iterations.
  Pulay mixer: Number of initial linear mixing iterations not set.
  Defaulting to    0 iterations.
  Work space size for distributed Hartree potential not set.
  Defaulting to   0.200000E+03 MB.
  Mixing parameter for charge density mixing has not been set.
  Using default: charge_mix_param =     0.0500.
  The mixing parameter will be adjusted in iteration number     2 of the first full s.c.f. cycle only.
  Algorithm-dependent basis array size parameters:
  | n_max_pulay                         :        8
  Maximum number of self-consistency iterations not provided.
  Presetting  1000 iterations.
  Presetting      1001 iterations before the initial mixing cycle
  is restarted anyway using the sc_init_iter criterion / keyword.
  Presetting a factor      1.000 between actual scf density residual
  and density convergence criterion sc_accuracy_rho below which sc_init_iter
  takes no effect.
  No maximum number of relaxation steps, defaulting to     1000
  Default initial Hessian is Lindh matrix (thres = 15.00) plus  0.200000E+01 eV/A^2 times unity.
  No maximum energy tolerance for TRM/BFGS moves, defaulting to   0.150000E-02
  Maximum energy tolerance by which TRM/BFGS trajectory may increase over multiple steps:   0.300000E-02
  No harmonic length scale. Defaulting to   0.250000E-01 A.
  No trust radius initializer. Defaulting to   0.200000E+00 A.
  Forces evaluation will include force correction term due to incomplete self-consistency (default).
  Handling of forces: Unphysical translation and rotation will be removed from forces.
  No accuracy limit for integral partition fn. given. Defaulting to  0.1000E-14.
  No threshold value for u(r) in integrations given. Defaulting to  0.1000E-05.
  No accuracy for occupation numbers given. Defaulting to  0.1000E-12.
  No threshold value for occupation numbers given. Defaulting to  0.0000E+00.
  No accuracy for fermi level given. Defaulting to  0.1000E-19.
  Maximum # of iterations to find E_F not set. Defaulting to  200.
  Preferred method for the eigenvalue solver ('KS_method') not specified in 'control.in'.
  Defaulting to serial version, LAPACK (via ELSI), since more k-points than CPUs available.
  Will not use alltoall communication since running on < 1024 CPUs.
  Threshold for basis singularities not set.
  Default threshold for basis singularities:  0.1000E-04
  partition_type (choice of integration weights) for integrals was not specified.
  | Using a version of the partition function of Stratmann and coworkers ('stratmann_sparse').
  | At each grid point, the set of atoms used to build the partition table is smoothly restricted to
  | only those atoms whose free-atom density would be non-zero at that grid point.
  Partitioning for Hartree potential was not defined. Using partition_type for integrals.
  | Adjusted default value of keyword multip_moments_threshold to:       0.10000000E-11
  | This value may affect high angular momentum components of the Hartree potential in periodic systems.
  No q(lm)/r^(l+1) cutoff set for long-range Hartree potential.
  | Using default value of  0.100000E-09 .
  | Verify using the multipole_threshold keyword.
  Defaulting to new monopole extrapolation.
  Density update method: automatic selection selected.
  Using density matrix based charge density update.
 * Warning: DFT+U requires using density matrix based charge density update.
  Using density matrix based charge density update.
  Using packed matrix style: index .
  Geometry relaxation: A file "geometry.in.next_step" is written out by default after each step.
  | This file contains the geometry of the current relaxation step as well as
  | the current Hessian matrix needed to restart the relaxation algorithm.
  | If you do not want part or all of this information, use the keywords
  | "write_restart_geometry" or "hessian_to_restart_geometry" to switch the output off.
  Defaulting to use time-reversal symmetry for k-point grid.
  Charge integration errors on the 3D integration grid will be compensated
  by explicit normalization and distribution of residual charges.
  Use the "compensate_multipole_errors" flag to change this behaviour.
  Set 'collect_eigenvectors' to be '.true.' for all serial calculations. This is mandatory.
  Set 'collect_eigenvectors' to be '.true.' for KS_method lapack_fast and serial.
 
  Consistency checks for the contents of geometry.in are next.
 

  Range separation radius for Ewald summation (hartree_convergence_parameter):      3.02593388 bohr.
  Number of empty states per atom not set in control.in - providing a guess from actual geometry.
  | Total number of empty states used during s.c.f. cycle:       23
  If you use a very high smearing, use empty_states (per atom!) in control.in to increase this value.

  Structure-dependent array size parameters: 
  | Maximum number of distinct radial functions  :       17
  | Maximum number of basis functions            :      118
  | Number of Kohn-Sham states (occupied + empty):       61
------------------------------------------------------------
  After read_input_data [GB]:    165.25

  Performing system and environment tests:
  *** Environment variable OMP_NUM_THREADS is not set
  *** For performance reasons you might want to set it to 1
  | Checking for ScaLAPACK...
  | Testing pdtran()...
  | All pdtran() tests passed.
  After prepare_system [GB]:    165.20

------------------------------------------------------------
          Preparing all fixed parts of the calculation.
------------------------------------------------------------
  Determining machine precision:
    2.225073858507201E-308
  Setting up grids for atomic and cluster calculations.

  Creating wave function, potential, and density for free atoms.
  Runtime choices for atomic solver:
  | atomic solver xc        : PW-LDA
  | compute density gradient: 1
  | compute kinetic density : T

  Species: Ti

  List of occupied orbitals and eigenvalues:
    n    l              occ      energy [Ha]    energy [eV]
    1    0           2.0000      -179.482435     -4883.9656
    2    0           2.0000       -19.674169      -535.3614
    3    0           2.0000        -2.270443       -61.7819
    4    0           2.0000        -0.153527        -4.1777
    2    1           6.0000       -16.307552      -443.7511
    3    1           6.0000        -1.407668       -38.3046
    3    2           2.0000        -0.147710        -4.0194


  Species: O

  List of occupied orbitals and eigenvalues:
    n    l              occ      energy [Ha]    energy [eV]
    1    0           2.0000       -18.786109      -511.1960
    2    0           2.0000        -0.872635       -23.7456
    2    1           4.0000        -0.337687        -9.1889


  Adding cutoff potential to free-atom effective potential.
  Creating fixed part of basis set: Ionic, confined, hydrogenic.
 
  Ti                   ion:

  List of free ionic orbitals and eigenvalues:
    n    l      energy [Ha]    energy [eV]
    1    0      -180.346512     -4907.4783
    2    0       -20.558929      -559.4369
    3    0        -3.105104       -84.4942
    4    0        -0.707661       -19.2564
    2    1       -17.189957      -467.7625
    3    1        -2.231709       -60.7279
    3    2        -0.922254       -25.0958


  List of ionic basis orbitals and eigenvalues:
    n    l      energy [Ha]    energy [eV]    outer radius [A]
    4    1        -0.526225       -14.3193       4.592117
    4    0        -0.707344       -19.2478       4.536321

 
  Ti                   hydrogenic:
 
  List of hydrogenic basis orbitals: 
    n    l      effective z      eigenvalue [eV]  inner max. [A]     outer max. [A]     outer radius [A]   
    4    3         8.000000       -54.4222           1.059019           1.059019           4.267343
    3    2         2.700000       -10.7798           1.726925           1.726925           4.592117
 
 
  O                    hydrogenic:
 
  List of hydrogenic basis orbitals: 
    n    l      effective z      eigenvalue [eV]  inner max. [A]     outer max. [A]     outer radius [A]   
    2    1         1.800000       -10.9749           1.164242           1.164242           4.578029
    3    2         7.600000       -87.3180           0.624125           0.624125           3.251020
    3    0         6.400000       -61.9207           0.061167           1.081902           4.001998
 
  Creating atomic-like basis functions for current effective potential.

  Species Ti                  :

  List of atomic basis orbitals and eigenvalues:
    n    l      energy [Ha]    energy [eV]    outer radius [A]
    1    0      -179.482435     -4883.9656       0.490254
    2    0       -19.674169      -535.3614       1.491292
    3    0        -2.270443       -61.7819       4.014314
    4    0        -0.153527        -4.1777       4.592117
    2    1       -16.307552      -443.7511       1.585290
    3    1        -1.407668       -38.3046       4.267343
    3    2        -0.147710        -4.0194       4.536321


  Species O                   :

  List of atomic basis orbitals and eigenvalues:
    n    l      energy [Ha]    energy [eV]    outer radius [A]
    1    0       -18.786109      -511.1960       1.433179
    2    0        -0.872635       -23.7456       4.413171
    2    1        -0.337687        -9.1889       4.522403

  Assembling full basis from fixed parts.
 * Warning - Since '+U' treatment was requested,
 * the basis-dependent cutoff is turned off automatically.
  | Species Ti :   atomic orbital   1 s accepted.
  | Species Ti :   atomic orbital   2 s accepted.
  | Species Ti :   atomic orbital   3 s accepted.
  | Species Ti :   atomic orbital   4 s accepted.
  | Species Ti :    ionic orbital   4 s accepted.
  | Species Ti :   atomic orbital   2 p accepted.
  | Species Ti :   atomic orbital   3 p accepted.
  | Species Ti :    ionic orbital   4 p accepted.
  | Species Ti :   atomic orbital   3 d accepted.
  | Species Ti :    hydro orbital   3 d accepted.
  | Species Ti :    hydro orbital   4 f accepted.
 * Warning - Since '+U' treatment was requested,
 * the basis-dependent cutoff is turned off automatically.
  | Species O :   atomic orbital   1 s accepted.
  | Species O :   atomic orbital   2 s accepted.
  | Species O :    hydro orbital   3 s accepted.
  | Species O :   atomic orbital   2 p accepted.
  | Species O :    hydro orbital   2 p accepted.
  | Species O :    hydro orbital   3 d accepted.
 
  Basis size parameters after reduction:
  | Total number of radial functions:       17
  | Total number of basis functions :      118
 
  Per-task memory consumption for arrays in subroutine allocate_ext:
  |           6.022728MB.
  Testing on-site integration grid accuracy.
  |  Species  Function  <phi|h_atom|phi> (log., in eV)  <phi|h_atom|phi> (rad., in eV)
           1        1              -4883.9655584838              -4883.9621038685
           1        2               -535.3613797651               -535.3613465329
           1        3                -61.7819051437                -61.7819042958
           1        4                 -4.2003822752                 -4.2346685062 ***
           1        5                  7.2077759278                  6.9926101099 ***
           1        6               -443.7510567204               -443.7510565108
           1        7                -38.3045974414                -38.3045972667
           1        8                  0.2435515971                  0.2278546356
           1        9                 -4.0209566986                 -4.0233253492
           1       10                  6.1945918217                  6.1160653784 ***
           1       11                 27.5350749887                 27.5351945928
           2       12               -511.1960429777               -511.1959399133
           2       13                -23.7455964041                -23.7455972542
           2       14                 17.3746964700                 17.3748057881
           2       15                 -9.1890598667                 -9.1892026751
           2       16                  8.1915160719                  8.1720639763
           2       17                 45.8005976646                 45.8005620229
 * Note: Onsite integrals marked "***" above are less accurate than
 * onsite_accuracy_threshold =    0.03000 eV. Usually, this is harmless.
 * However, one integral did have a negative value. This integral could be important.
 * When in doubt, tighten the "radial" and/or "radial_multiplier" flags to check.

  Preparing densities etc. for the partition functions (integrals / Hartree potential).

  Preparations completed.
  max(cpu_time)          :      0.555 s.
  Wall clock time (cpu1) :      0.617 s.
------------------------------------------------------------
  After prepare_scf [GB]:    164.44

  Initializing index lists of integration centers etc. from given atomic structure:
  Mapping all atomic coordinates to central unit cell.

  Initializing the k-points
  Using symmetry for reducing the k-points
  | k-points reduced from:      200 to      101
  | Number of k-points                             :       101
  The eigenvectors in the calculations are COMPLEX.
  | K-points in task   0:         2
  | K-points in task   1:         3
  | K-points in task   2:         3
  | K-points in task   3:         3
  | K-points in task   4:         3
  | K-points in task   5:         3
  | K-points in task   6:         3
  | K-points in task   7:         3
  | K-points in task   8:         3
  | K-points in task   9:         3
  | K-points in task  10:         3
  | K-points in task  11:         3
  | K-points in task  12:         3
  | K-points in task  13:         3
  | K-points in task  14:         3
  | K-points in task  15:         3
  | K-points in task  16:         3
  | K-points in task  17:         3
  | K-points in task  18:         3
  | K-points in task  19:         3
  | K-points in task  20:         3
  | K-points in task  21:         3
  | K-points in task  22:         2
  | K-points in task  23:         2
  | K-points in task  24:         2
  | K-points in task  25:         2
  | K-points in task  26:         2
  | K-points in task  27:         2
  | K-points in task  28:         2
  | K-points in task  29:         2
  | K-points in task  30:         2
  | K-points in task  31:         2
  | K-points in task  32:         2
  | K-points in task  33:         2
  | K-points in task  34:         2
  | K-points in task  35:         2
  | K-points in task  36:         2
  | K-points in task  37:         2
  | K-points in task  38:         2
  | K-points in task  39:         2
  | Number of basis functions in the Hamiltonian integrals :      2939
  | Number of basis functions in a single unit cell        :       118
  | Number of centers in hartree potential         :      1176
  | Number of centers in hartree multipole         :       753
  | Number of centers in electron density summation:       546
  | Number of centers in basis integrals           :       579
  | Number of centers in integrals                 :       201
  | Number of centers in hamiltonian               :       546
  | Consuming        202 KiB for k_phase.
  | Number of super-cells (origin) [n_cells]                     :         891
  | Number of super-cells (after PM_index) [n_cells]             :         128
  | Number of super-cells in hamiltonian [n_cells_in_hamiltonian]:         128
  | Size of matrix packed + index [n_hamiltonian_matrix_size] :      274727
  After initialize_bc_dependent_lists [GB]:    164.27

------------------------------------------------------------
          Begin self-consistency loop: Initialization.

          Date     :  20250603, Time     :  134628.242
------------------------------------------------------------

  Initializing relaxation algorithms.
  Finished initialization of distributed Hessian storage.
  | Global dimension:        18
  | BLACS block size:         1
  | Number of workers:       18

  Available memory per node after initialize_hartree_non_periodic_ewald [GB]:    164.27
  | Estimated reciprocal-space cutoff momentum G_max:         3.12207854 bohr^-1 .
  | Reciprocal lattice points for long-range Hartree potential:     208
  Available memory per node after initialize_recip_hartree_potential [GB]:    164.27
  Available memory per node after initialize_scalapack [GB]:    164.27
  Available memory per node after aims_elsi_init_scf [GB]:    164.27
  Available memory per node after initialize_fixed_grids [GB]:    164.27
  Partitioning the integration grid into batches with parallel hashing+maxmin method.
  | Number of batches:      496
  | Maximal batch size:     114
  | Minimal batch size:      50
  | Average batch size:      77.274
  | Standard deviation of batch sizes:      17.142

  Integration load balanced across    40 MPI tasks.
  Work distribution over tasks is as follows:
  Task     0 has        976 integration points.
  Task     1 has        949 integration points.
  Task     2 has        958 integration points.
  Task     3 has        972 integration points.
  Task     4 has        973 integration points.
  Task     5 has        953 integration points.
  Task     6 has        960 integration points.
  Task     7 has        911 integration points.
  Task     8 has        908 integration points.
  Task     9 has        975 integration points.
  Task    10 has        963 integration points.
  Task    11 has        985 integration points.
  Task    12 has        946 integration points.
  Task    13 has        959 integration points.
  Task    14 has        966 integration points.
  Task    15 has        940 integration points.
  Task    16 has        948 integration points.
  Task    17 has        977 integration points.
  Task    18 has        950 integration points.
  Task    19 has        970 integration points.
  Task    20 has        974 integration points.
  Task    21 has        956 integration points.
  Task    22 has        955 integration points.
  Task    23 has        943 integration points.
  Task    24 has        976 integration points.
  Task    25 has        942 integration points.
  Task    26 has        958 integration points.
  Task    27 has        968 integration points.
  Task    28 has        966 integration points.
  Task    29 has        969 integration points.
  Task    30 has        958 integration points.
  Task    31 has        954 integration points.
  Task    32 has        961 integration points.
  Task    33 has        970 integration points.
  Task    34 has        960 integration points.
  Task    35 has        907 integration points.
  Task    36 has        988 integration points.
  Task    37 has        944 integration points.
  Task    38 has        972 integration points.
  Task    39 has        968 integration points.
  Available memory per node after partition_grid [GB]:    164.26
  Initializing partition tables, free-atom densities, potentials, etc. across the integration grid (initialize_grid_storage).
  | initialize_grid_storage: Actual outermost partition radius vs. multipole_radius_free
  | (-- VB: in principle, multipole_radius_free should be larger, hence this output)
  | Species        1: Confinement radius =              4.999999999999999 AA, multipole_radius_free =              5.002391649902235 AA.
  | Species        1: outer_partition_radius set to              5.002391649902235 AA .
  | Species        2: Confinement radius =              4.999999999999999 AA, multipole_radius_free =              5.048384829883283 AA.
  | Species        2: outer_partition_radius set to              5.048384829883283 AA .
  | The sparse table of interatomic distances needs       1488.83 kbyte instead of      2681.93 kbyte of memory.
  | Net number of integration points:    38328
  | of which are non-zero points    :    31428
  | Numerical average free-atom electrostatic potential    :    -18.10374677 eV
  Available memory per node after initialize_grid_storage_p1 [GB]:    164.24
  Renormalizing the initial density to the exact electron count on the 3D integration grid.
  | Initial density: Formal number of electrons (from input files) :      76.0000000000
  | Integrated number of electrons on 3D grid     :      76.0008511853
  | Charge integration error                      :       0.0008511853
  | Normalization factor for density and gradient :       0.9999888003
  Renormalizing the free-atom superposition density to the exact electron count on the 3D integration grid.
  | Formal number of electrons (from input files) :      76.0000000000
  | Integrated number of electrons on 3D grid     :      76.0008511853
  | Charge integration error                      :       0.0008511853
  | Normalization factor for density and gradient :       0.9999888003
  Obtaining max. number of non-zero basis functions in each batch (get_n_compute_maxes).
  | Maximal number of non-zero basis functions:      772 in task     0
  | Maximal number of non-zero basis functions:      805 in task     1
  | Maximal number of non-zero basis functions:      851 in task     2
  | Maximal number of non-zero basis functions:      825 in task     3
  | Maximal number of non-zero basis functions:      795 in task     4
  | Maximal number of non-zero basis functions:      795 in task     5
  | Maximal number of non-zero basis functions:      868 in task     6
  | Maximal number of non-zero basis functions:      850 in task     7
  | Maximal number of non-zero basis functions:      831 in task     8
  | Maximal number of non-zero basis functions:      869 in task     9
  | Maximal number of non-zero basis functions:      813 in task    10
  | Maximal number of non-zero basis functions:      801 in task    11
  | Maximal number of non-zero basis functions:      788 in task    12
  | Maximal number of non-zero basis functions:      803 in task    13
  | Maximal number of non-zero basis functions:      824 in task    14
  | Maximal number of non-zero basis functions:      865 in task    15
  | Maximal number of non-zero basis functions:      802 in task    16
  | Maximal number of non-zero basis functions:      795 in task    17
  | Maximal number of non-zero basis functions:      863 in task    18
  | Maximal number of non-zero basis functions:      799 in task    19
  | Maximal number of non-zero basis functions:      793 in task    20
  | Maximal number of non-zero basis functions:      790 in task    21
  | Maximal number of non-zero basis functions:      830 in task    22
  | Maximal number of non-zero basis functions:      819 in task    23
  | Maximal number of non-zero basis functions:      858 in task    24
  | Maximal number of non-zero basis functions:      831 in task    25
  | Maximal number of non-zero basis functions:      903 in task    26
  | Maximal number of non-zero basis functions:      830 in task    27
  | Maximal number of non-zero basis functions:      824 in task    28
  | Maximal number of non-zero basis functions:      835 in task    29
  | Maximal number of non-zero basis functions:      822 in task    30
  | Maximal number of non-zero basis functions:      856 in task    31
  | Maximal number of non-zero basis functions:      877 in task    32
  | Maximal number of non-zero basis functions:      811 in task    33
  | Maximal number of non-zero basis functions:      895 in task    34
  | Maximal number of non-zero basis functions:      806 in task    35
  | Maximal number of non-zero basis functions:      870 in task    36
  | Maximal number of non-zero basis functions:      856 in task    37
  | Maximal number of non-zero basis functions:      832 in task    38
  | Maximal number of non-zero basis functions:      869 in task    39
  Available memory per node after get_n_compute_maxes_p1 [GB]:    164.23
  Allocating        0.220 MB for KS_eigenvector_complex
  Available memory per node after allocate_matrices [GB]:    164.22
  Available memory per node after init_comm_sparse_local_matrix_scalapack [GB]:    164.22
  Integrating Hamiltonian matrix: batch-based integration.
  Time summed over all CPUs for integration: real work        9.922 s, elapsed       11.642 s
  Available memory per node after integrate hamiltonian matrix [GB]:    163.88
  Integrating overlap matrix.
  Time summed over all CPUs for integration: real work        4.947 s, elapsed        6.383 s
  Available memory per node after integrate ovlp matrix [GB]:    163.61
  Available memory per node after ASI_callbacks invoke [GB]:    163.61
  Decreasing sparse matrix size:
  | Tolerance:  0.1000E-12
  Hamiltonian matrix
  | Array has   239065 nonzero elements out of   274727 elements
  | Sparsity factor is 0.130
  Overlap matrix
  | Array has   219432 nonzero elements out of   274727 elements
  | Sparsity factor is 0.201
  New size of hamiltonian matrix:      239249
  Available memory per node after save_overlap_scalapack [GB]:    163.50

  Updating Kohn-Sham eigenvalues and eigenvectors using ELSI and the (modified) LAPACK eigensolver.
  Singularity check in k-point 40, task 0 (analysis for other k-points/tasks may follow below):
  Overlap matrix is not singular
  | Lowest and highest eigenvalues :  0.1302E-02,  0.8040E+01
  Finished singularity check of overlap matrix
  | Time :     0.151 s
  Starting LAPACK eigensolver
  Finished Cholesky decomposition
  | Time :     0.001 s
  Finished transformation to standard eigenproblem
  | Time :     0.001 s
  Finished solving standard eigenproblem
  | Time :     0.040 s
  Finished back-transformation of eigenvectors
  | Time :     0.000 s

  Obtaining occupation numbers and electronic chemical potential using ELSI.
  | Note that, for insulating systems, the printed 'chemical potential' value is not uniquely defined.
  | It can be anywhere in the energy gap, as long as it correctly separates occupied and unoccupied states.
  | In systems with a gap, the physically relevant chemical potential is the VBM or HOMO.

  | Chemical potential (Fermi level):   -11.10670303 eV
  Available memory per node after advance_KS_solution [GB]:    162.51
  Writing Kohn-Sham eigenvalues.
  K-point:       1 at    0.000000    0.000000    0.000000 (in units of recip. lattice)

  State    Occupation    Eigenvalue [Ha]    Eigenvalue [eV]
      1       2.00000        -179.492822        -4884.24821
      2       2.00000        -179.492822        -4884.24821
      3       2.00000         -19.685684         -535.67470
      4       2.00000         -19.685684         -535.67470
      5       2.00000         -18.897403         -514.22451
      6       2.00000         -18.897403         -514.22451
      7       2.00000         -18.897403         -514.22451
      8       2.00000         -18.897403         -514.22451
      9       2.00000         -16.319085         -444.06491
     10       2.00000         -16.319085         -444.06491
     11       2.00000         -16.318756         -444.05594
     12       2.00000         -16.318756         -444.05594
     13       2.00000         -16.318749         -444.05574
     14       2.00000         -16.318749         -444.05574
     15       2.00000          -2.300892          -62.61046
     16       2.00000          -2.299963          -62.58519
     17       2.00000          -1.453730          -39.55801
     18       2.00000          -1.453730          -39.55801
     19       2.00000          -1.445320          -39.32916
     20       2.00000          -1.443463          -39.27863
     21       2.00000          -1.442621          -39.25573
     22       2.00000          -1.442621          -39.25573
     23       2.00000          -1.070883          -29.14020
     24       2.00000          -1.034944          -28.16226
     25       2.00000          -1.001463          -27.25120
     26       2.00000          -1.001463          -27.25120
     27       2.00000          -0.601932          -16.37941
     28       2.00000          -0.581632          -15.82700
     29       2.00000          -0.564937          -15.37272
     30       2.00000          -0.531219          -14.45521
     31       2.00000          -0.531219          -14.45520
     32       2.00000          -0.502283          -13.66781
     33       2.00000          -0.502282          -13.66780
     34       2.00000          -0.486684          -13.24335
     35       2.00000          -0.451195          -12.27763
     36       2.00000          -0.443373          -12.06479
     37       2.00000          -0.443373          -12.06479
     38       2.00000          -0.424430          -11.54933
     39       0.00000          -0.207406           -5.64381
     40       0.00000          -0.201835           -5.49221
     41       0.00000          -0.174494           -4.74821
     42       0.00000          -0.171261           -4.66024
     43       0.00000          -0.171260           -4.66023
     44       0.00000          -0.114092           -3.10459
     45       0.00000          -0.106944           -2.91009
     46       0.00000          -0.075462           -2.05342
     47       0.00000          -0.047337           -1.28811
     48       0.00000          -0.047337           -1.28811
     49       0.00000          -0.016807           -0.45734
     50       0.00000           0.096597            2.62855
     51       0.00000           0.096597            2.62855
     52       0.00000           0.179577            4.88653
     53       0.00000           0.283197            7.70619
     54       0.00000           0.301396            8.20141
     55       0.00000           0.318549            8.66816
     56       0.00000           0.370531           10.08267
     57       0.00000           0.370532           10.08269
     58       0.00000           0.467596           12.72394
     59       0.00000           0.561991           15.29255
     60       0.00000           0.665113           18.09865
     61       0.00000           0.723499           19.68741

  What follows are estimated values for band gap, HOMO, LUMO, etc.
  | They are estimated on a discrete k-point grid and not necessarily exact.
  | For converged numbers, create a DOS and/or band structure plot on a denser k-grid.

  Highest occupied state (VBM) at    -11.54933011 eV (relative to internal zero)
  | Occupation number:      2.00000000
  | K-point:       1 at    0.000000    0.000000    0.000000 (in units of recip. lattice)

  Lowest unoccupied state (CBM) at    -5.64380562 eV (relative to internal zero)
  | Occupation number:      0.00000000
  | K-point:       1 at    0.000000    0.000000    0.000000 (in units of recip. lattice)

  ESTIMATED overall HOMO-LUMO gap:      5.90552449 eV between HOMO at k-point 1 and LUMO at k-point 1
  | This appears to be a direct band gap.
  The gap value is above 0.2 eV. Unless you are using a very sparse k-point grid,
  this system is most likely an insulator or a semiconductor.
  Calculating total energy contributions from superposition of free atom densities.

  Total energy components:
  | Sum of eigenvalues            :       -1190.72359451 Ha      -32401.23756343 eV
  | XC energy correction          :        -112.77741726 Ha       -3068.82966396 eV
  | XC potential correction       :         149.04917255 Ha        4055.83434359 eV
  | Free-atom electrostatic energy:        -854.36003391 Ha      -23248.31938408 eV
  | Hartree energy correction     :           0.00000000 Ha           0.00000000 eV
  | DFT+U energy correction       :           0.00000000 Ha           0.00000000 eV
  | Entropy correction            :          -0.00000000 Ha          -0.00000000 eV
  | ---------------------------
  | Total energy                  :       -2008.81187313 Ha      -54662.55226788 eV
  | Total energy, T -> 0          :       -2008.81187313 Ha      -54662.55226788 eV  <-- do not rely on this value for anything but (periodic) metals
  | Electronic free energy        :       -2008.81187313 Ha      -54662.55226788 eV

  Derived energy quantities:
  | Kinetic energy                :        2019.73252096 Ha       54959.71821501 eV
  | Electrostatic energy          :       -3915.76697683 Ha     -106553.44081893 eV
  | Energy correction for multipole
  | error in Hartree potential    :           0.00000000 Ha           0.00000000 eV
  | Sum of eigenvalues per atom                           :       -5400.20626057 eV
  | Total energy (T->0) per atom                          :       -9110.42537798 eV  <-- do not rely on this value for anything but (periodic) metals
  | Electronic free energy per atom                       :       -9110.42537798 eV
  Initialize hartree_potential_storage
  Max. number of atoms included in rho_multipole:            6

  End scf initialization - timings             :  max(cpu_time)    wall_clock(cpu1)
  | Time for scf. initialization                :        1.274 s           1.862 s
  | Boundary condition initialization           :        0.075 s           0.272 s
  | Relaxation initialization                   :        0.019 s           0.022 s
  | Integration                                 :        0.407 s           0.541 s
  | Solution of K.-S. eqns.                     :        0.280 s           0.497 s
  | Grid partitioning                           :        0.044 s           0.066 s
  | Preloading free-atom quantities on grid     :        0.194 s           0.270 s
  | Free-atom superposition energy              :        0.023 s           0.024 s
  | Total energy evaluation                     :        0.005 s           0.070 s

  Partial memory accounting:
  | Current value for overall tracked memory usage:
  |   Minimum:        4.831 MB (on task  0)
  |   Maximum:        4.941 MB (on task  1)
  |   Average:        4.888 MB
  | Peak value for overall tracked memory usage:
  |   Minimum:       16.115 MB (on task  0 after allocating wave)
  |   Maximum:       18.818 MB (on task 26 after allocating wave)
  |   Average:       17.356 MB
  | Largest tracked array allocation so far:
  |   Minimum:        4.547 MB (hamiltonian_shell on task  0)
  |   Maximum:        6.221 MB (hamiltonian_shell on task 26)
  |   Average:        5.270 MB
  Note:  These values currently only include a subset of arrays which are explicitly tracked.
  The "true" memory usage will be greater.
------------------------------------------------------------
  Available memory after initialize_scf [GB]:    162.51
  Available memory after allocating mixing [GB]:    162.51
  Evaluating new KS density using the density matrix
  Evaluating density matrix
  Time summed over all CPUs for getting density from density matrix: real work       14.362 s, elapsed       20.911 s
  Integration grid: deviation in total charge (<rho> - N_e) =  -1.932676E-12

  Time for density update prior                :  max(cpu_time)    wall_clock(cpu1)
  | self-consistency iterative process          :        0.556 s           0.577 s
  Available memory before start of SCF loop [GB]:    162.36

------------------------------------------------------------
          Begin self-consistency iteration #    1

  Date     :  20250603, Time     :  134630.687
------------------------------------------------------------
  Pulay mixing of updated and previous charge densities.
  Available memory per node after mixing [GB]:    162.36
  Renormalizing the density to the exact electron count on the 3D integration grid.
  | Formal number of electrons (from input files) :      76.0000000000
  | Integrated number of electrons on 3D grid     :      76.0000000000
  | Charge integration error                      :      -0.0000000000
  | Normalization factor for density and gradient :       1.0000000000

  Evaluating partitioned Hartree potential by multipole expansion.
  | Original multipole sum: apparent total charge =  -0.232633E-13
  | Sum of charges compensated after spline to logarithmic grids =  -0.137065E-05
  | Analytical far-field extrapolation by fixed multipoles:
  | Hartree multipole sum: apparent total charge =  -0.232080E-13
  Summing up the Hartree potential.
  Time summed over all CPUs for potential: real work        0.068 s, elapsed        0.075 s
  | RMS charge density error from multipole expansion :   0.110256E-02
  | Average real-space part of the electrostatic potential :      0.07229715 eV

  Integrating Hamiltonian matrix: batch-based integration.
  Time summed over all CPUs for integration: real work       14.739 s, elapsed       18.648 s
  ----------------------------------------------------------------
  Adding Hubbard correction to Hamiltonian
  ----------------------------------------------------------------
  !--Definition for DFT+U occupation matrix is:    'on-site'
  correlated subspace  1      |  U =   2.58 eV
   avg. occ. hubbard projectors:  0.0552
   petukhov mixing factor      :  1.0000
  ----------------------------------------------------------------
   occupation matrix (subspace #           1 , spin            1 )
   0.06661   0.00000   0.02747  -0.00000   0.00000
   0.00000   0.06546   0.00000  -0.03249  -0.00000
   0.02747   0.00000   0.04789  -0.00000   0.00000
  -0.00000  -0.03249  -0.00000   0.06546  -0.00000
   0.00000  -0.00000   0.00000  -0.00000   0.03046
  ----------------------------------------------------------------
  correlated subspace  2      |  U =   2.58 eV
   avg. occ. hubbard projectors:  0.0552
   petukhov mixing factor      :  1.0000
  ----------------------------------------------------------------
   occupation matrix (subspace #           2 , spin            1 )
   0.06661   0.00000  -0.02747   0.00000  -0.00000
   0.00000   0.06546  -0.00000   0.03249   0.00000
  -0.02747  -0.00000   0.04789  -0.00000   0.00000
   0.00000   0.03249  -0.00000   0.06546  -0.00000
  -0.00000   0.00000   0.00000  -0.00000   0.03046
  ----------------------------------------------------------------
  correlated subspace  3      |  U =   0.00 eV
   avg. occ. hubbard projectors:  1.6850
   petukhov mixing factor      :  1.0000
  ----------------------------------------------------------------
   occupation matrix (subspace #           3 , spin            1 )
   1.69952   0.00000  -0.06015
   0.00000   1.65609   0.00000
  -0.06015   0.00000   1.69952
  ----------------------------------------------------------------
  correlated subspace  4      |  U =   0.00 eV
   avg. occ. hubbard projectors:  1.6850
   petukhov mixing factor      :  1.0000
  ----------------------------------------------------------------
   occupation matrix (subspace #           4 , spin            1 )
   1.69952  -0.00000  -0.06015
  -0.00000   1.65609  -0.00000
  -0.06015  -0.00000   1.69952
  ----------------------------------------------------------------
  correlated subspace  5      |  U =   0.00 eV
   avg. occ. hubbard projectors:  1.6850
   petukhov mixing factor      :  1.0000
  ----------------------------------------------------------------
   occupation matrix (subspace #           5 , spin            1 )
   1.69952  -0.00000   0.06015
  -0.00000   1.65609   0.00000
   0.06015   0.00000   1.69952
  ----------------------------------------------------------------
  correlated subspace  6      |  U =   0.00 eV
   avg. occ. hubbard projectors:  1.6850
   petukhov mixing factor      :  1.0000
  ----------------------------------------------------------------
   occupation matrix (subspace #           6 , spin            1 )
   1.69952   0.00000   0.06015
   0.00000   1.65609  -0.00000
   0.06015  -0.00000   1.69952
  ----------------------------------------------------------------

  Updating Kohn-Sham eigenvalues and eigenvectors using ELSI and the (modified) LAPACK eigensolver.
  Starting LAPACK eigensolver
  Finished Cholesky decomposition
  | Time :     0.000 s
  Finished transformation to standard eigenproblem
  | Time :     0.001 s
  Finished solving standard eigenproblem
  | Time :     0.002 s
  Finished back-transformation of eigenvectors
  | Time :     0.000 s

  Obtaining occupation numbers and electronic chemical potential using ELSI.
  | Note that, for insulating systems, the printed 'chemical potential' value is not uniquely defined.
  | It can be anywhere in the energy gap, as long as it correctly separates occupied and unoccupied states.
  | In systems with a gap, the physically relevant chemical potential is the VBM or HOMO.

  | Chemical potential (Fermi level):   -11.33138953 eV
  Writing Kohn-Sham eigenvalues.
  K-point:       1 at    0.000000    0.000000    0.000000 (in units of recip. lattice)

  State    Occupation    Eigenvalue [Ha]    Eigenvalue [eV]
      1       2.00000        -180.617028        -4914.83940
      2       2.00000        -180.617024        -4914.83928
      3       2.00000         -20.094475         -546.79848
      4       2.00000         -20.094394         -546.79629
      5       2.00000         -19.231907         -523.32682
      6       2.00000         -19.231893         -523.32642
      7       2.00000         -19.231887         -523.32628
      8       2.00000         -19.231887         -523.32628
      9       2.00000         -16.589642         -451.42714
     10       2.00000         -16.589629         -451.42677
     11       2.00000         -16.589350         -451.41919
     12       2.00000         -16.589350         -451.41919
     13       2.00000         -16.589338         -451.41885
     14       2.00000         -16.589338         -451.41885
     15       2.00000          -2.445431          -66.54357
     16       2.00000          -2.444608          -66.52116
     17       2.00000          -1.539242          -41.88490
     18       2.00000          -1.539242          -41.88489
     19       2.00000          -1.530855          -41.65669
     20       2.00000          -1.529203          -41.61173
     21       2.00000          -1.528582          -41.59483
     22       2.00000          -1.528582          -41.59482
     23       2.00000          -1.140779          -31.04217
     24       2.00000          -1.105783          -30.08988
     25       2.00000          -1.075127          -29.25571
     26       2.00000          -1.075127          -29.25570
     27       2.00000          -0.614905          -16.73241
     28       2.00000          -0.590841          -16.07759
     29       2.00000          -0.574141          -15.62318
     30       2.00000          -0.539304          -14.67520
     31       2.00000          -0.539303          -14.67519
     32       2.00000          -0.513376          -13.96966
     33       2.00000          -0.513375          -13.96965
     34       2.00000          -0.496743          -13.51705
     35       2.00000          -0.459229          -12.49626
     36       2.00000          -0.451019          -12.27284
     37       2.00000          -0.451019          -12.27284
     38       2.00000          -0.432679          -11.77378
     39       0.00000          -0.191829           -5.21992
     40       0.00000          -0.184784           -5.02823
     41       0.00000          -0.155683           -4.23635
     42       0.00000          -0.152139           -4.13990
     43       0.00000          -0.152138           -4.13990
     44       0.00000          -0.094611           -2.57451
     45       0.00000          -0.091765           -2.49705
     46       0.00000          -0.065972           -1.79518
     47       0.00000          -0.027550           -0.74968
     48       0.00000          -0.027550           -0.74968
     49       0.00000           0.005286            0.14383
     50       0.00000           0.114083            3.10435
     51       0.00000           0.114083            3.10436
     52       0.00000           0.218624            5.94907
     53       0.00000           0.314603            8.56079
     54       0.00000           0.338929            9.22273
     55       0.00000           0.352883            9.60245
     56       0.00000           0.409480           11.14252
     57       0.00000           0.409481           11.14254
     58       0.00000           0.503474           13.70022
     59       0.00000           0.619030           16.84465
     60       0.00000           0.711546           19.36214
     61       0.00000           0.773169           21.03899

  What follows are estimated values for band gap, HOMO, LUMO, etc.
  | They are estimated on a discrete k-point grid and not necessarily exact.
  | For converged numbers, create a DOS and/or band structure plot on a denser k-grid.

  Highest occupied state (VBM) at    -11.77378376 eV (relative to internal zero)
  | Occupation number:      2.00000000
  | K-point:       1 at    0.000000    0.000000    0.000000 (in units of recip. lattice)

  Lowest unoccupied state (CBM) at    -5.21992337 eV (relative to internal zero)
  | Occupation number:      0.00000000
  | K-point:       1 at    0.000000    0.000000    0.000000 (in units of recip. lattice)

  ESTIMATED overall HOMO-LUMO gap:      6.55386039 eV between HOMO at k-point 1 and LUMO at k-point 1
  | This appears to be a direct band gap.
  The gap value is above 0.2 eV. Unless you are using a very sparse k-point grid,
  this system is most likely an insulator or a semiconductor.

  Total energy components:
  | Sum of eigenvalues            :       -1205.19105704 Ha      -32794.91724909 eV
  | XC energy correction          :        -122.22900975 Ha       -3326.02058144 eV
  | XC potential correction       :         163.21618343 Ha        4441.33832393 eV
  | Free-atom electrostatic energy:        -854.36003391 Ha      -23248.31938408 eV
  | Hartree energy correction     :           0.36930922 Ha          10.04941512 eV
  | DFT+U energy correction       :           0.00187827 Ha           0.05111039 eV
  | Entropy correction            :          -0.00000000 Ha          -0.00000000 eV
  | ---------------------------
  | Total energy                  :       -2018.19272978 Ha      -54917.81836517 eV
  | Total energy, T -> 0          :       -2018.19272978 Ha      -54917.81836517 eV  <-- do not rely on this value for anything but (periodic) metals
  | Electronic free energy        :       -2018.19272978 Ha      -54917.81836517 eV

  Derived energy quantities:
  | Kinetic energy                :        2019.89998807 Ha       54964.27522695 eV
  | Electrostatic energy          :       -3915.86558637 Ha     -106556.12412107 eV
  | Energy correction for multipole
  | error in Hartree potential    :           0.00131392 Ha           0.03575370 eV
  | Sum of eigenvalues per atom                           :       -5465.81954152 eV
  | Total energy (T->0) per atom                          :       -9152.96972753 eV  <-- do not rely on this value for anything but (periodic) metals
  | Electronic free energy per atom                       :       -9152.96972753 eV
  Evaluating new KS density using the density matrix
  Evaluating density matrix
  Time summed over all CPUs for getting density from density matrix: real work       12.789 s, elapsed       16.163 s
  Integration grid: deviation in total charge (<rho> - N_e) =  -1.975309E-12

  Self-consistency convergence accuracy:
  | Change of charge density      :  0.7390E+00
  | Change of unmixed KS density  :  0.7194E+02
  | Change of sum of eigenvalues  : -0.3937E+03 eV
  | Change of total energy        : -0.2553E+03 eV


------------------------------------------------------------
  End self-consistency iteration #     1       :  max(cpu_time)    wall_clock(cpu1)
  | Time for this iteration                     :        1.065 s           1.288 s
  | Charge density update                       :        0.417 s           0.418 s
  | Density mixing                              :        0.004 s           0.008 s
  | Hartree multipole update                    :        0.123 s           0.125 s
  | Hartree multipole summation                 :        0.085 s           0.198 s
  | Integration                                 :        0.397 s           0.497 s
  | Solution of K.-S. eqns.                     :        0.036 s           0.035 s
  | Total energy evaluation                     :        0.000 s           0.000 s

  Partial memory accounting:
  | Current value for overall tracked memory usage:
  |   Minimum:        5.461 MB (on task 35)
  |   Maximum:        5.624 MB (on task 11)
  |   Average:        5.554 MB
  | Peak value for overall tracked memory usage:
  |   Minimum:       16.116 MB (on task  0 after allocating wave)
  |   Maximum:       18.818 MB (on task 26 after allocating wave)
  |   Average:       17.356 MB
  | Largest tracked array allocation so far:
  |   Minimum:        4.547 MB (hamiltonian_shell on task  0)
  |   Maximum:        6.221 MB (hamiltonian_shell on task 26)
  |   Average:        5.270 MB
  Note:  These values currently only include a subset of arrays which are explicitly tracked.
  The "true" memory usage will be greater.
------------------------------------------------------------

------------------------------------------------------------
          Begin self-consistency iteration #    2

  Date     :  20250603, Time     :  134631.988
------------------------------------------------------------
  Pulay mixing of updated and previous charge densities.
  Available memory per node after mixing [GB]:    162.15
  Renormalizing the density to the exact electron count on the 3D integration grid.
  | Formal number of electrons (from input files) :      76.0000000000
  | Integrated number of electrons on 3D grid     :      76.0000000000
  | Charge integration error                      :      -0.0000000000
  | Normalization factor for density and gradient :       1.0000000000

  Evaluating partitioned Hartree potential by multipole expansion.
  | Original multipole sum: apparent total charge =  -0.230973E-13
  | Sum of charges compensated after spline to logarithmic grids =  -0.847711E-05
  | Analytical far-field extrapolation by fixed multipoles:
  | Hartree multipole sum: apparent total charge =  -0.232695E-13
  Summing up the Hartree potential.
  Time summed over all CPUs for potential: real work        0.040 s, elapsed        0.053 s
  | RMS charge density error from multipole expansion :   0.648912E-02
  | Average real-space part of the electrostatic potential :      0.42559764 eV

  Integrating Hamiltonian matrix: batch-based integration.
  Time summed over all CPUs for integration: real work        8.784 s, elapsed       10.485 s
  ----------------------------------------------------------------
  Adding Hubbard correction to Hamiltonian
  ----------------------------------------------------------------
  !--Definition for DFT+U occupation matrix is:    'on-site'
  correlated subspace  1      |  U =   2.58 eV
   avg. occ. hubbard projectors:  0.0506
   petukhov mixing factor      :  1.0000
  ----------------------------------------------------------------
   occupation matrix (subspace #           1 , spin            1 )
   0.06099   0.00000   0.02550  -0.00000   0.00000
   0.00000   0.06033   0.00000  -0.03070  -0.00000
   0.02550   0.00000   0.04382  -0.00000   0.00000
  -0.00000  -0.03070  -0.00000   0.06033  -0.00000
   0.00000  -0.00000   0.00000  -0.00000   0.02738
  ----------------------------------------------------------------
  correlated subspace  2      |  U =   2.58 eV
[...]
   Pulay + GGA                   : -0.567656E+00 -0.567660E+00 -0.480396E-08
   ----------------------------------------------------------------
   Total forces(   5)            :  0.584824E-02  0.588156E-02 -0.140749E-07
  atom #    6
   Hellmann-Feynman              : -0.680711E+00 -0.680710E+00 -0.582709E-08
   Ionic forces                  :  0.000000E+00  0.000000E+00  0.000000E+00
   Multipole                     :  0.107207E+00  0.107168E+00 -0.318479E-08
   Hartree pot. SCF incomplete   :  0.951056E-07  0.931560E-07  0.263822E-11
   Pulay + GGA                   :  0.567656E+00  0.567660E+00 -0.448462E-08
   ----------------------------------------------------------------
   Total forces(   6)            : -0.584825E-02 -0.588157E-02 -0.134939E-07


  Self-consistency convergence accuracy:
  | Change of charge density      :  0.2037E-06
  | Change of unmixed KS density  :  0.3479E-06
  | Change of sum of eigenvalues  : -0.8698E-04 eV
  | Change of total energy        :  0.1816E-07 eV
  | Change of forces              :  0.1429E-06 eV/A

  Writing plus_u occupation matrix for occupation matrix control

  Writing Kohn-Sham eigenvalues.
  K-point:       1 at    0.000000    0.000000    0.000000 (in units of recip. lattice)

  State    Occupation    Eigenvalue [Ha]    Eigenvalue [eV]
      1       2.00000        -180.692768        -4916.90039
      2       2.00000        -180.692764        -4916.90028
      3       2.00000         -20.215588         -550.09414
      4       2.00000         -20.215512         -550.09206
      5       2.00000         -19.063063         -518.73234
      6       2.00000         -19.063049         -518.73196
      7       2.00000         -19.063044         -518.73182
      8       2.00000         -19.063044         -518.73182
      9       2.00000         -16.706607         -454.60991
     10       2.00000         -16.706607         -454.60991
     11       2.00000         -16.706529         -454.60778
     12       2.00000         -16.706529         -454.60778
     13       2.00000         -16.706504         -454.60710
     14       2.00000         -16.706492         -454.60678
     15       2.00000          -2.547786          -69.32879
     16       2.00000          -2.547225          -69.31352
     17       2.00000          -1.630615          -44.37129
     18       2.00000          -1.630615          -44.37129
     19       2.00000          -1.624516          -44.20532
     20       2.00000          -1.624516          -44.20532
     21       2.00000          -1.622910          -44.16163
     22       2.00000          -1.621733          -44.12960
     23       2.00000          -1.057354          -28.77205
     24       2.00000          -1.017802          -27.69580
     25       2.00000          -0.989891          -26.93629
     26       2.00000          -0.989890          -26.93629
     27       2.00000          -0.555722          -15.12197
     28       2.00000          -0.542751          -14.76900
     29       2.00000          -0.513664          -13.97752
     30       2.00000          -0.487713          -13.27133
     31       2.00000          -0.487712          -13.27133
     32       2.00000          -0.435708          -11.85623
     33       2.00000          -0.435708          -11.85622
     34       2.00000          -0.417253          -11.35405
     35       2.00000          -0.370288          -10.07605
     36       2.00000          -0.358353           -9.75129
     37       2.00000          -0.358353           -9.75129
     38       2.00000          -0.339248           -9.23141
     39       0.00000          -0.248629           -6.76555
     40       0.00000          -0.235287           -6.40249
     41       0.00000          -0.228097           -6.20684
     42       0.00000          -0.226168           -6.15436
     43       0.00000          -0.226168           -6.15435
     44       0.00000          -0.164914           -4.48755
     45       0.00000          -0.149704           -4.07365
     46       0.00000          -0.079213           -2.15548
     47       0.00000          -0.079212           -2.15548
     48       0.00000          -0.040546           -1.10332
     49       0.00000          -0.008036           -0.21868
     50       0.00000           0.151629            4.12602
     51       0.00000           0.151629            4.12603
     52       0.00000           0.268872            7.31638
     53       0.00000           0.298448            8.12118
     54       0.00000           0.361839            9.84614
     55       0.00000           0.399421           10.86881
     56       0.00000           0.446031           12.13713
     57       0.00000           0.446032           12.13714
     58       0.00000           0.503816           13.70953
     59       0.00000           0.662969           18.04030
     60       0.00000           0.689212           18.75441
     61       0.00000           0.763919           20.78729

  What follows are estimated values for band gap, HOMO, LUMO, etc.
  | They are estimated on a discrete k-point grid and not necessarily exact.
  | For converged numbers, create a DOS and/or band structure plot on a denser k-grid.

  Highest occupied state (VBM) at     -9.23141012 eV (relative to internal zero)
  | Occupation number:      2.00000000
  | K-point:       1 at    0.000000    0.000000    0.000000 (in units of recip. lattice)

  Lowest unoccupied state (CBM) at    -6.76554837 eV (relative to internal zero)
  | Occupation number:      0.00000000
  | K-point:       1 at    0.000000    0.000000    0.000000 (in units of recip. lattice)

  ESTIMATED overall HOMO-LUMO gap:      2.46586175 eV between HOMO at k-point 1 and LUMO at k-point 1
  | This appears to be a direct band gap.
  The gap value is above 0.2 eV. Unless you are using a very sparse k-point grid,
  this system is most likely an insulator or a semiconductor.

  | Chemical Potential                          :    -8.78959710 eV
  | Note that, for insulating systems, the printed 'chemical potential' value is not uniquely defined.
  | It can be anywhere in the energy gap, as long as it correctly separates occupied and unoccupied states.
  | In systems with a gap, the physically relevant chemical potential is the VBM or HOMO.

  Self-consistency cycle converged.


------------------------------------------------------------
  End self-consistency iteration #    31       :  max(cpu_time)    wall_clock(cpu1)
  | Time for this iteration                     :        2.341 s           2.346 s
  | Charge density & force component update     :        1.838 s           1.842 s
  | Density mixing                              :        0.007 s           0.001 s
  | Hartree multipole update                    :        0.001 s           0.001 s
  | Hartree multipole summation                 :        0.118 s           0.119 s
  | Hartree pot. SCF incomplete forces          :        0.142 s           0.142 s
  | Integration                                 :        0.214 s           0.214 s
  | Solution of K.-S. eqns.                     :        0.020 s           0.020 s
  | Total energy evaluation                     :        0.000 s           0.001 s

  Partial memory accounting:
  | Current value for overall tracked memory usage:
  |   Minimum:        5.461 MB (on task 35)
  |   Maximum:        5.625 MB (on task 11)
  |   Average:        5.554 MB
  | Peak value for overall tracked memory usage:
  |   Minimum:       23.485 MB (on task  0 after allocating d_wave)
  |   Maximum:       27.425 MB (on task 26 after allocating d_wave)
  |   Average:       25.272 MB
  | Largest tracked array allocation so far:
  |   Minimum:        4.547 MB (hamiltonian_shell on task  0)
  |   Maximum:        6.221 MB (hamiltonian_shell on task 26)
  |   Average:        5.270 MB
  Note:  These values currently only include a subset of arrays which are explicitly tracked.
  The "true" memory usage will be greater.
------------------------------------------------------------
  Removing unitary transformations (pure translations, rotations) from forces on atoms.
  Atomic forces before filtering:
  | Net force on center of mass :   0.185268E-08 -0.174284E-07 -0.523857E-07 eV/A
  Atomic forces after filtering:
  | Net force on center of mass :   0.000000E+00  0.000000E+00  0.132923E-22 eV/A

  Energy and forces in a compact form:
  | Total energy uncorrected      :         -0.549104122862642E+05 eV
  | Total energy corrected        :         -0.549104122862642E+05 eV  <-- do not rely on this value for anything but (periodic) metals
  | Electronic free energy        :         -0.549104122862642E+05 eV
  Total atomic forces (unitary forces cleaned) [eV/Ang]:
  |    1          0.323385893077448E-07         -0.826688994631186E-08         -0.213300582309490E-07
  |    2         -0.239318869035568E-07          0.625885044204115E-08         -0.879868533281182E-08
  |    3         -0.584824447128882E-02          0.588157104469213E-02          0.209301706086138E-07
  |    4          0.584824552092727E-02         -0.588156349583234E-02          0.193054483309275E-07
  |    5          0.584824055509148E-02          0.588156403995726E-02         -0.534396004330730E-08
  |    6         -0.584825001143234E-02         -0.588156958077755E-02         -0.476291533247317E-08

  ------------------------------------ 
  Start decomposition of the XC Energy 
  ------------------------------------ 
  X and C from original XC functional choice 
  Hartree-Fock Energy :          0.000000000 Ha              0.000000000 eV
  X Energy            :       -119.249401557 Ha          -3244.941317171 eV
  C Energy            :         -3.484806386 Ha            -94.826406480 eV
  XC Energy w/o HF    :       -122.734207943 Ha          -3339.767723651 eV
  Total XC Energy     :       -122.734207943 Ha          -3339.767723651 eV
  ------------------------------------ 
  LDA X and C from self-consistent density 
  X Energy LDA        :       -107.331176698 Ha          -2920.629917968 eV
  C Energy LDA        :         -5.875739176 Ha           -159.886997930 eV
  ------------------------------------ 
  End decomposition of the XC Energy 
  ------------------------------------ 

------------------------------------------------------------
  Relaxation / MD: End force evaluation.       :  max(cpu_time)    wall_clock(cpu1)
  | Time for this force evaluation              :       24.496 s          26.441 s

------------------------------------------------------------
  Geometry optimization: Attempting to predict improved coordinates.

  Removing unitary transformations (pure translations, rotations) from forces on atoms.
  Atomic forces before filtering:
  | Net force on center of mass :   0.000000E+00  0.000000E+00  0.132923E-22 eV/A
  Atomic forces after filtering:
  | Net force on center of mass :   0.000000E+00  0.000000E+00 -0.132923E-23 eV/A
  Net remaining forces (excluding translations, rotations) in present geometry:
  || Forces on atoms   || =   0.588157E-02 eV/A.
  Maximum force component is  0.588157E-02 eV/A.
  Present geometry is converged.

------------------------------------------------------------
  Final atomic structure:
                         x [A]             y [A]             z [A]
  lattice_vector         4.59570000        0.00000000        0.00000000
  lattice_vector         0.00000000        4.59570000        0.00000000
  lattice_vector         0.00000000        0.00000000        2.95890000

            atom         2.29785000        2.29785000        1.47945000  Ti
            atom         0.00000000        0.00000000        0.00000000  Ti
            atom         0.89177988        3.70392320        1.47945000  O
            atom         3.70392012        0.89177680        1.47945000  O
            atom         1.40607012        1.40607320        0.00000000  O
            atom         3.18962988        3.18962680       -0.00000000  O

  Fractional coordinates:
                         L1                L2                L3
       atom_frac         0.50000000        0.50000000        0.50000000  Ti
       atom_frac         0.00000000        0.00000000        0.00000000  Ti
       atom_frac         0.19404658        0.80595409        0.50000000  O
       atom_frac         0.80595342        0.19404591        0.50000000  O
       atom_frac         0.30595342        0.30595409        0.00000000  O
       atom_frac         0.69404658        0.69404591       -0.00000000  O
------------------------------------------------------------

------------------------------------------------------------------------------
  Final output of selected total energy values:

  The following output summarizes some interesting total energy values
  at the end of a run (AFTER all relaxation, molecular dynamics, etc.).

  | Total energy of the DFT / Hartree-Fock s.c.f. calculation      :         -54910.412286264 eV
  | Final zero-broadening corrected energy (caution - metals only) :         -54910.412286264 eV
  | For reference only, the value of 1 Hartree used in FHI-aims is :             27.211384500 eV
  | For reference only, the overall average (free atom contribution
  | + realspace contribution) of the electrostatic potential after
  | s.c.f. convergence is                                          :            -17.282663905 eV

  Before relying on these values, please be sure to understand exactly which
  total energy value is referred to by a given number. Different objects may
  all carry the same name 'total energy'. Definitions:

  Total energy of the DFT / Hartree-Fock s.c.f. calculation:
  | Note that this energy does not include ANY quantities calculated after the
  | s.c.f. cycle, in particular not ANY RPA, MP2, etc. many-body perturbation terms.

  Final zero-broadening corrected energy:
  | For metallic systems only, a broadening of the occupation numbers at the Fermi
  | level can be extrapolated back to zero broadening by an electron-gas inspired
  | formula. For all systems that are not real metals, this value can be
  | meaningless and should be avoided.

------------------------------------------------------------------------------
  Methods described in the following list of references were used in this FHI-aims run.
  If you publish the results, please make sure to cite these reference if they apply.
  FHI-aims is an academic code, and for our developers (often, Ph.D. students
  and postdocs), scientific credit in the community is essential.
  Thank you for helping us!

  For any use of FHI-aims, please cite:

    Volker Blum, Ralf Gehrke, Felix Hanke, Paula Havu, Ville Havu,
    Xinguo Ren, Karsten Reuter, and Matthias Scheffler
    'Ab initio molecular simulations with numeric atom-centered orbitals'
    Computer Physics Communications 180, 2175-2196 (2009)
    http://doi.org/10.1016/j.cpc.2009.06.022


  The provided symmetry information was generated with SPGlib:

    Atsushi Togo, Yusuke Seto, Dimitar Pashov
    SPGlib 1.7.3 obtained from http://spglib.sourceforge.net
    Copyright (C) 2008 Atsushi Togo


 DFT+U infrastructure was used in your run
 please cite:

 Matthias Kick, Karsten Reuter and Harald Oberhofer,
 Intricacies Of DFT+U, not only in a Numeric Atom Centered Orbital Framework

 Journal of Chemical Theory and Computation
 https://


  The ELSI infrastructure was used in your run to solve the Kohn-Sham electronic structure.
  Please check out http://elsi-interchange.org to learn more.
  If scalability is important for your project, please acknowledge ELSI by citing:

    V. W-z. Yu, F. Corsetti, A. Garcia, W. P. Huhn, M. Jacquelin, W. Jia,
    B. Lange, L. Lin, J. Lu, W. Mi, A. Seifitokaldani, A. Vazquez-Mayagoitia,
    C. Yang, H. Yang, and V. Blum
    'ELSI: A unified software interface for Kohn-Sham electronic structure solvers'
    Computer Physics Communications 222, 267-285 (2018).
    http://doi.org/10.1016/j.cpc.2017.09.007


  For the real-space grid partitioning and parallelization used in this calculation, please cite:

    Ville Havu, Volker Blum, Paula Havu, and Matthias Scheffler,
    'Efficient O(N) integration for all-electron electronic structure calculation'
    'using numerically tabulated basis functions'
    Journal of Computational Physics 228, 8367-8379 (2009).
    http://doi.org/10.1016/j.jcp.2009.08.008

  Of course, there are many other important community references, e.g., those cited in the
  above references. Our list is limited to references that describe implementations in the
  FHI-aims code. The reason is purely practical (length of this list) - please credit others as well.

 * A warning was issued further up regarding the accuracy of onsite integrals.
   An integral with a negative eigenvalue was among the flagged integrals.
   In most standard situations, this warning is probably harmless.
   If needed, this can be verified by adjusting the radial_multiplier flag.

 * Warning - a code part requested a citation which was not known
 * to subroutine cite_reference in module applicable_citations.f90 .
 * Likely this is a programmer's oversight. Please let us know.

------------------------------------------------------------
          Leaving FHI-aims.
          Date     :  20250603, Time     :  134654.866

          Computational steps:
          | Number of self-consistency cycles          :           31
          | Number of SCF (re)initializations          :            1
          | Number of relaxation steps                 :            0

          Detailed time accounting                     :  max(cpu_time)    wall_clock(cpu1)
          | Total time                                  :       25.985 s          28.847 s
          | Preparation time                            :        0.555 s           0.617 s
          | Boundary condition initalization            :        0.075 s           0.272 s
          | Grid partitioning                           :        0.044 s           0.066 s
          | Preloading free-atom quantities on grid     :        0.194 s           0.270 s
          | Free-atom superposition energy              :        0.023 s           0.024 s
          | Total time for integrations                 :        7.725 s           7.976 s
          | Total time for solution of K.-S. equations  :        0.997 s           1.217 s
          | Total time for EV reorthonormalization      :        0.000 s           0.000 s
          | Total time for density & force components   :       13.393 s          13.606 s
          | Total time for mixing                       :        0.247 s           0.075 s
          | Total time for Hartree multipole update     :        0.153 s           0.157 s
          | Total time for Hartree multipole sum        :        1.632 s           1.795 s
          | Total time for total energy evaluation      :        0.015 s           0.083 s
          | Total time NSC force correction             :        0.286 s           0.307 s
          | Total time for scaled ZORA corrections      :        0.000 s           0.000 s

          Partial memory accounting:
          | Residual value for overall tracked memory usage across tasks:     0.000000 MB (should be 0.000000 MB)
          | Peak values for overall tracked memory usage:
          |   Minimum:       23.485 MB (on task  0 after allocating d_wave)
          |   Maximum:       27.425 MB (on task 26 after allocating d_wave)
          |   Average:       25.272 MB
          | Largest tracked array allocation:
          |   Minimum:        4.547 MB (hamiltonian_shell on task  0)
          |   Maximum:        6.221 MB (hamiltonian_shell on task 26)
          |   Average:        5.270 MB
          Note:  These values currently only include a subset of arrays which are explicitly tracked.
          The "true" memory usage will be greater.

          Have a nice day.
------------------------------------------------------------
